
  ___ ___ ___ _ _ _  
 |   |   |_  | | | | 
 | | | | | . | | | | 
 |__ |  _|___|_____|  20.10.1b1
 |___|_|             

User:   czeng3@node1908.oscar.ccv.brown.edu
Date:   Mon Feb 28 14:16:24 2022
Arch:   x86_64
Pid:    193459
Python: 3.9.0
gpaw:   /gpfs/home/czeng3/usr/installs/gpaw/gpaw-venv/lib/python3.9/site-packages/gpaw
_gpaw:  /gpfs/home/czeng3/usr/installs/gpaw/gpaw-venv/lib/python3.9/site-packages/
        _gpaw.cpython-39-x86_64-linux-gnu.so (1899847042)
ase:    /users/czeng3/usr/installs/ase/ase (version 3.21.0b1-0a4ef4b0d1)
numpy:  /gpfs/home/czeng3/usr/installs/gpaw/gpaw-venv/lib/python3.9/site-packages/numpy (version 1.20.1)
scipy:  /gpfs/home/czeng3/usr/installs/gpaw/gpaw-venv/lib/python3.9/site-packages/scipy (version 1.6.0)
libxc:  4.2.3
units:  Angstrom and eV
cores: 48
OMP_NUM_THREADS: 1

Input parameters:
  convergence: {energy: 0.0001}
  kpts: [1 1 1]
  maxiter: 6000
  mode: {ecut: 350.0,
         gammacentered: False,
         name: pw}
  occupations: {fixmagmom: False,
                name: fermi-dirac,
                width: 0.1}
  spinpol: True
  symmetry: {point_group: False}
  xc: PBE

System changes: positions, numbers, cell, pbc, initial_charges, initial_magmoms 

Initialize ...

Pt-setup:
  name: Platinum
  id: 5ed695806aff0c961dba1a84acd7f4b2
  Z: 78.0
  valence: 16
  core: 62
  charge: 0.0
  file: /gpfs/home/czeng3/usr/moreinstalls/gpaw/gpaw-setups-0.9.20000/Pt.PBE.gz
  compensation charges: gauss, rc=0.41, lmax=2
  cutoffs: 2.26(filt), 2.26(core),
  valence states:
                energy  radius
    6s(1.00)    -5.628   1.307
    5p(6.00)   -56.051   1.371
    6p(0.00)    -0.845   1.371
    5d(9.00)    -6.153   1.307
    *s          21.583   1.307
    *d          21.058   1.307

  Using partial waves for Pt as LCAO basis

Co-setup:
  name: Cobalt
  id: 339d20d5b0b93d2de9531a1bee871d91
  Z: 27.0
  valence: 9
  core: 18
  charge: 0.0
  file: /gpfs/home/czeng3/usr/moreinstalls/gpaw/gpaw-setups-0.9.20000/Co.PBE.gz
  compensation charges: gauss, rc=0.32, lmax=2
  cutoffs: 1.87(filt), 2.55(core),
  valence states:
                energy  radius
    4s(2.00)    -5.469   1.005
    4p(0.00)    -1.277   1.058
    3d(7.00)    -8.205   1.005
    *s          21.742   1.005
    *p          25.934   1.058
    *d          19.007   1.005

  Using partial waves for Co as LCAO basis

Reference energy: -42569510.585079

Spin-polarized calculation.
Magnetic moment: 40.730000

Convergence criteria:
  Maximum total energy change: 0.0001 eV / electron
  Maximum integral of absolute density change: 0.0001 electrons
  Maximum integral of absolute eigenstate change: 4e-08 eV^2
  Maximum number of iterations: 6000

Symmetries present (total): 1

  ( 1  0  0)
  ( 0  1  0)
  ( 0  0  1)

1 k-point (Gamma)
1 k-point in the irreducible part of the Brillouin zone
       k-points in crystal coordinates                weights
   0:     0.00000000    0.00000000    0.00000000          1/1

Wave functions: Plane wave expansion
  Cutoff energy: 350.000 eV
  Number of coefficients: 204589 (reduced to 102295)
  Pulay-stress correction: 0.000000 eV/Ang^3 (de/decut=0.000000)
  Using FFTW library
  ScaLapack parameters: grid=1x1, blocksize=None
  Wavefunction extrapolation:
    Improved wavefunction reuse through dual PAW basis 

  Fermi-Dirac: width=0.1000 eV

Eigensolver
   Davidson(niter=2, smin=None, normalize=True) 

Densities:
  Coarse grid: 105*105*105 grid
  Fine grid: 210*210*210 grid
  Total Charge: 0.000000 

Density mixing:
  Method: difference
  Backend: pulay
  Linear mixing parameter: 0.05
  Mixing with 5 old densities
  Damping of long wave oscillations: 50 

Hamiltonian:
  XC and Coulomb potentials evaluated on a 210*210*210 grid
  Using the PBE Exchange-Correlation functional
 

XC parameters: PBE with 2 nearest neighbor stencil

Memory estimate:
  Process memory now: 823.65 MiB
  Calculator: 5581.50 MiB
    Density: 14.96 MiB
      Arrays: 6.58 MiB
      Localized functions: 5.65 MiB
      Mixer: 2.73 MiB
    Hamiltonian: 5.03 MiB
      Arrays: 4.89 MiB
      XC: 0.00 MiB
      Poisson: 0.00 MiB
      vbar: 0.14 MiB
    Wavefunctions: 5561.50 MiB
      Arrays psit_nG: 3618.16 MiB
      Eigensolver: 1919.40 MiB
      Projections: 0.97 MiB
      Projectors: 0.34 MiB
      PW-descriptor: 22.62 MiB

Total number of cores used: 48
Domain decomposition: 4 x 4 x 3

Number of atoms: 147
Number of atomic orbitals: 1563
Number of bands in calculation: 1159
Number of valence electrons: 1883
Bands to converge: occupied

... initialized

Initializing position-dependent things.

Density initialized from atomic densities
Creating initial wave functions:
  1159 bands from LCAO basis set

                .----------------------------------------------------------.  
               /|                                                          |  
              / |                                                          |  
             /  |                                                          |  
            /   |                                                          |  
           /    |                                                          |  
          /     |                                                          |  
         /      |                                                          |  
        /       |                                                          |  
       /        |                                                          |  
      /         |                                                          |  
     /          |                                                          |  
    /           |                       Pt                                 |  
   /            |                 Pt   Pt                                  |  
  /             |                     Pt    PPt                            |  
 *              |           Pt   Co  Pt Co Co    Pt                        |  
 |              |               Co Pt    Co     PCo                        |  
 |              |     Pt PtPt  Pt CoPtCo  PtCo  Pt   PPt                   |  
 |              |            Pt Co     Pt    Pt     PPt                    |  
 |              |          Co  CCoCoCo PtCCo   CCCo                        |  
 |              |     PPt  Co   Ptt  CPt   PCo     Pt Pt                   |  
 |              |         Co Pt    PPt   CoPt   Pt   Co                    |  
 |              |          CCo CoCo  CCCo  CoCo CCo                        |  
 |              |      Pt   Pt    PCo   CPt    Pt  Co                      |  
 |              |     Pt Pt     CPt   PCo  Ptt   Co  PPt                   |  
 |              |          CCCo   CoCo  CoCoCCo  Co                        |  
 |              |      PPt     Pt    Pt     Pt Pt                          |  
 |              |     PPt   Pt  CCot  CCoPtCoPt  PtPt Pt                   |  
 |              |          CPt     Co    Pt Co                             |  
 |              .----------Pt----Co-Co-Pt--Co---Pt-------------------------.  
 |             /                Pt    Pt                                  /   
 |            /                Pt    Pt   Pt                             /    
 |           /                      Pt                                  /     
 |          /                                                          /      
 |         /                                                          /       
 |        /                                                          /        
 |       /                                                          /         
 |      /                                                          /          
 |     /                                                          /           
 |    /                                                          /            
 |   /                                                          /             
 |  /                                                          /              
 | /                                                          /               
 |/                                                          /                
 *----------------------------------------------------------*                 

Positions:
   0 Pt    13.403341    7.084979   16.180205    ( 0.0000,  0.0000,  0.3500)
   1 Pt    10.726911    9.762926   11.973879    ( 0.0000,  0.0000,  0.3500)
   2 Co     9.358494    7.700452   11.917912    ( 0.0000,  0.0000,  0.1900)
   3 Pt     8.046281    5.504047   11.901405    ( 0.0000,  0.0000,  0.3500)
   4 Pt    16.855575   16.254569   13.361801    ( 0.0000,  0.0000,  0.3500)
   5 Co    15.477823   14.088397   13.296083    ( 0.0000,  0.0000,  0.1900)
   6 Pt    17.666864   14.174033   14.628583    ( 0.0000,  0.0000,  0.3500)
   7 Co    15.484999    9.783409   13.211600    ( 0.0000,  0.0000,  0.1900)
   8 Pt    17.685654    9.745523   14.579357    ( 0.0000,  0.0000,  0.3500)
   9 Pt    14.163977   11.885290   13.302802    ( 0.0000,  0.0000,  0.3500)
  10 Co    16.279536   11.960420   14.589959    ( 0.0000,  0.0000,  0.1900)
  11 Pt    18.461801   11.947163   15.934124    ( 0.0000,  0.0000,  0.3500)
  12 Pt    14.676791    6.318952   14.096533    ( 0.0000,  0.0000,  0.3500)
  13 Co    13.330296    8.555740   14.013918    ( 0.0000,  0.0000,  0.1900)
  14 Co    15.468071    8.513467   15.353568    ( 0.0000,  0.0000,  0.1900)
  15 Pt    16.317341   10.565576   16.809992    ( 0.0000,  0.0000,  0.3500)
  16 Co    12.033950    6.394658   14.020914    ( 0.0000,  0.0000,  0.1900)
  17 Pt    13.258222   18.478268   12.029384    ( 0.0000,  0.0000,  0.3500)
  18 Co    15.449806   15.392511   15.446535    ( 0.0000,  0.0000,  0.1900)
  19 Co    14.171031   13.258626   15.453165    ( 0.0000,  0.0000,  0.1900)
  20 Co    12.014837   11.864928   16.240597    ( 0.0000,  0.0000,  0.1900)
  21 Pt    12.025783   10.604584   18.466232    ( 0.0000,  0.0000,  0.3500)
  22 Pt    16.309190   13.305179   16.849772    ( 0.0000,  0.0000,  0.3500)
  23 Co    14.118462   10.602420   15.437416    ( 0.0000,  0.0000,  0.1900)
  24 Co    14.151595   11.913470   17.556392    ( 0.0000,  0.0000,  0.1900)
  25 Pt    12.003248   13.172355   18.484591    ( 0.0000,  0.0000,  0.3500)
  26 Co     9.829597   13.255972   15.475283    ( 0.0000,  0.0000,  0.1900)
  27 Co     9.879594   11.891425   17.554751    ( 0.0000,  0.0000,  0.1900)
  28 Pt     9.765184   14.545692   17.680321    ( 0.0000,  0.0000,  0.3500)
  29 Pt     9.306589   17.591370   14.230856    ( 0.0000,  0.0000,  0.3500)
  30 Pt    14.211398   14.564870   17.650183    ( 0.0000,  0.0000,  0.3500)
  31 Pt    14.627834   17.600072   14.227603    ( 0.0000,  0.0000,  0.3500)
  32 Co    13.318010   15.408185   14.145944    ( 0.0000,  0.0000,  0.1900)
  33 Pt    13.344488   16.782719   16.300861    ( 0.0000,  0.0000,  0.3500)
  34 Pt    12.000569   13.244940   14.166021    ( 0.0000,  0.0000,  0.3500)
  35 Co    11.976257   14.549685   16.261681    ( 0.0000,  0.0000,  0.1900)
  36 Co    10.650094   15.401511   14.165373    ( 0.0000,  0.0000,  0.1900)
  37 Pt    11.988283   15.870964   18.457537    ( 0.0000,  0.0000,  0.3500)
  38 Pt    10.602461   16.774068   16.318937    ( 0.0000,  0.0000,  0.3500)
  39 Co    11.970282   17.527056   14.161630    ( 0.0000,  0.0000,  0.1900)
  40 Co     8.512917   15.368705   15.474920    ( 0.0000,  0.0000,  0.1900)
  41 Pt    10.642477   14.139792   11.961602    ( 0.0000,  0.0000,  0.3500)
  42 Co     9.325202   16.223185   12.023583    ( 0.0000,  0.0000,  0.1900)
  43 Co     8.096447   18.214705   12.045022    ( 0.0000,  0.0000,  0.1900)
  44 Pt     7.109599   16.237937   13.383159    ( 0.0000,  0.0000,  0.3500)
  45 Co    12.020120   11.926520   11.962349    ( 0.0000,  0.0000,  0.1900)
  46 Co    11.985219   16.275678   12.021442    ( 0.0000,  0.0000,  0.1900)
  47 Pt    10.662417   18.467625   12.041821    ( 0.0000,  0.0000,  0.3500)
  48 Co     9.928339   10.569165   15.428025    ( 0.0000,  0.0000,  0.1900)
  49 Pt     7.736647   10.525719   16.814759    ( 0.0000,  0.0000,  0.3500)
  50 Pt     9.816701    9.236733   17.604743    ( 0.0000,  0.0000,  0.3500)
  51 Pt     7.097831   16.285207   10.667161    ( 0.0000,  0.0000,  0.3500)
  52 Pt     7.690238   13.261858   16.869798    ( 0.0000,  0.0000,  0.3500)
  53 Pt     9.836726   11.910251   13.330205    ( 0.0000,  0.0000,  0.3500)
  54 Co     7.721077   11.929855   14.604056    ( 0.0000,  0.0000,  0.1900)
  55 Pt     5.553148   11.880431   15.970851    ( 0.0000,  0.0000,  0.3500)
  56 Pt     6.308655   14.128310   14.660840    ( 0.0000,  0.0000,  0.3500)
  57 Pt     5.472994   11.922025   13.267008    ( 0.0000,  0.0000,  0.3500)
  58 Co     8.495036   14.071881   13.330936    ( 0.0000,  0.0000,  0.1900)
  59 Co     7.687278   11.941984   11.974317    ( 0.0000,  0.0000,  0.1900)
  60 Co     6.370772   14.084279   12.003926    ( 0.0000,  0.0000,  0.1900)
  61 Pt     6.345165    9.692121   14.609332    ( 0.0000,  0.0000,  0.3500)
  62 Pt     5.466405   11.961354   10.698082    ( 0.0000,  0.0000,  0.3500)
  63 Co    10.715104    8.499218   14.118724    ( 0.0000,  0.0000,  0.1900)
  64 Pt    10.667839    7.039444   16.211197    ( 0.0000,  0.0000,  0.3500)
  65 Co    12.024212   10.593879   14.101343    ( 0.0000,  0.0000,  0.1900)
  66 Co    12.031540    9.334053   16.128717    ( 0.0000,  0.0000,  0.1900)
  67 Pt    12.045989    7.916324   18.346676    ( 0.0000,  0.0000,  0.3500)
  68 Pt    14.254225    9.258831   17.606831    ( 0.0000,  0.0000,  0.3500)
  69 Co     8.521096    9.762337   13.264340    ( 0.0000,  0.0000,  0.1900)
  70 Co     8.571349    8.457745   15.388771    ( 0.0000,  0.0000,  0.1900)
  71 Co     6.400181    9.803560   11.956799    ( 0.0000,  0.0000,  0.1900)
  72 Pt     7.131036    7.621137   13.304899    ( 0.0000,  0.0000,  0.3500)
  73 Pt     9.380509    6.277661   14.120567    ( 0.0000,  0.0000,  0.3500)
  74 Pt     9.312595   17.631304    9.844740    ( 0.0000,  0.0000,  0.3500)
  75 Co    11.974732   17.559570    9.895870    ( 0.0000,  0.0000,  0.1900)
  76 Co     8.467074   14.116604   10.669324    ( 0.0000,  0.0000,  0.1900)
  77 Co    10.689629   15.415305    9.821041    ( 0.0000,  0.0000,  0.1900)
  78 Pt     6.336121    9.771405    9.305546    ( 0.0000,  0.0000,  0.3500)
  79 Pt     6.288425   14.206874    9.347091    ( 0.0000,  0.0000,  0.3500)
  80 Pt     9.833681   11.981841   10.603361    ( 0.0000,  0.0000,  0.3500)
  81 Co     7.708033   11.997863    9.345246    ( 0.0000,  0.0000,  0.1900)
  82 Pt     5.528174   11.996931    7.995355    ( 0.0000,  0.0000,  0.3500)
  83 Pt     7.683549   13.389387    7.133428    ( 0.0000,  0.0000,  0.3500)
  84 Co     8.519770   15.446680    8.569572    ( 0.0000,  0.0000,  0.1900)
  85 Pt    14.628144   17.647852    9.803813    ( 0.0000,  0.0000,  0.3500)
  86 Pt    13.328306   14.132849   11.950058    ( 0.0000,  0.0000,  0.3500)
  87 Co    14.628721   16.231073   11.993924    ( 0.0000,  0.0000,  0.1900)
  88 Pt    15.961229   18.420331   12.020248    ( 0.0000,  0.0000,  0.3500)
  89 Co    13.289685   15.421365    9.816295    ( 0.0000,  0.0000,  0.1900)
  90 Pt    16.884520    7.703195   10.536029    ( 0.0000,  0.0000,  0.3500)
  91 Co    15.454516    9.823551   10.619373    ( 0.0000,  0.0000,  0.1900)
  92 Co    13.359953    8.541701    9.812259    ( 0.0000,  0.0000,  0.1900)
  93 Pt    13.366623    7.170440    7.612966    ( 0.0000,  0.0000,  0.3500)
  94 Co    15.466407    8.558156    8.452699    ( 0.0000,  0.0000,  0.1900)
  95 Pt    14.662183    6.346695    9.677406    ( 0.0000,  0.0000,  0.3500)
  96 Pt    14.220537    9.377377    6.231005    ( 0.0000,  0.0000,  0.3500)
  97 Co    14.088418   13.338154    8.491865    ( 0.0000,  0.0000,  0.1900)
  98 Pt    16.309329   10.648743    7.038951    ( 0.0000,  0.0000,  0.3500)
  99 Pt    14.197201   14.687741    6.322845    ( 0.0000,  0.0000,  0.3500)
 100 Co    14.166608   10.677849    8.423734    ( 0.0000,  0.0000,  0.1900)
 101 Co    14.128934   12.033142    6.344885    ( 0.0000,  0.0000,  0.1900)
 102 Pt    17.670768   14.226163    9.309294    ( 0.0000,  0.0000,  0.3500)
 103 Pt    18.525553   11.996222   10.656904    ( 0.0000,  0.0000,  0.3500)
 104 Pt    14.170065   11.974417   10.595052    ( 0.0000,  0.0000,  0.3500)
 105 Co    16.276986   11.998628    9.299835    ( 0.0000,  0.0000,  0.1900)
 106 Pt    18.448538   12.020502    7.952572    ( 0.0000,  0.0000,  0.3500)
 107 Pt    17.671801    9.791735    9.268066    ( 0.0000,  0.0000,  0.3500)
 108 Pt    16.279048   13.394006    7.096783    ( 0.0000,  0.0000,  0.3500)
 109 Co    15.500395   14.137653   10.653731    ( 0.0000,  0.0000,  0.1900)
 110 Pt    16.872359   16.294670   10.618180    ( 0.0000,  0.0000,  0.3500)
 111 Co    17.614524   14.125454   11.968600    ( 0.0000,  0.0000,  0.1900)
 112 Co    15.439630   15.458395    8.540383    ( 0.0000,  0.0000,  0.1900)
 113 Co    12.009838    6.419911    9.760976    ( 0.0000,  0.0000,  0.1900)
 114 Co    17.607078    9.849993   11.924125    ( 0.0000,  0.0000,  0.1900)
 115 Co    16.317219   11.993911   11.946827    ( 0.0000,  0.0000,  0.1900)
 116 Pt    18.529135   11.975347   13.231124    ( 0.0000,  0.0000,  0.3500)
 117 Co    11.994261   13.309978    9.815857    ( 0.0000,  0.0000,  0.1900)
 118 Co    11.983750   14.597544    7.801390    ( 0.0000,  0.0000,  0.1900)
 119 Pt    11.972588   16.015632    5.578111    ( 0.0000,  0.0000,  0.3500)
 120 Pt    10.605848   16.874443    7.733416    ( 0.0000,  0.0000,  0.3500)
 121 Pt    13.344459   16.881804    7.720675    ( 0.0000,  0.0000,  0.3500)
 122 Pt    11.975563   13.332297    5.464832    ( 0.0000,  0.0000,  0.3500)
 123 Pt     9.757257   14.684106    6.343224    ( 0.0000,  0.0000,  0.3500)
 124 Co     8.525533    8.537180    8.461738    ( 0.0000,  0.0000,  0.1900)
 125 Co     9.833461   10.652830    8.461162    ( 0.0000,  0.0000,  0.1900)
 126 Pt     7.682089   10.650679    7.083757    ( 0.0000,  0.0000,  0.3500)
 127 Co     9.885493   13.336691    8.509825    ( 0.0000,  0.0000,  0.1900)
 128 Co     9.843899   12.033253    6.384251    ( 0.0000,  0.0000,  0.1900)
 129 Pt    10.626648    7.153358    7.604505    ( 0.0000,  0.0000,  0.3500)
 130 Pt     9.760045    9.378410    6.252349    ( 0.0000,  0.0000,  0.3500)
 131 Co    11.998031   12.059317    7.684024    ( 0.0000,  0.0000,  0.1900)
 132 Pt    11.980626   10.767769    5.427739    ( 0.0000,  0.0000,  0.3500)
 133 Co    10.657263    8.519710    9.759201    ( 0.0000,  0.0000,  0.1900)
 134 Pt    12.017490   10.655388    9.762956    ( 0.0000,  0.0000,  0.3500)
 135 Co    11.993838    9.394806    7.637515    ( 0.0000,  0.0000,  0.1900)
 136 Pt    11.990600    8.066280    5.457857    ( 0.0000,  0.0000,  0.3500)
 137 Pt     7.127394    7.668767   10.557034    ( 0.0000,  0.0000,  0.3500)
 138 Co     8.538866    9.805842   10.627869    ( 0.0000,  0.0000,  0.1900)
 139 Co    13.350399    9.816199   11.920738    ( 0.0000,  0.0000,  0.1900)
 140 Co    14.614057    7.792042   11.907277    ( 0.0000,  0.0000,  0.1900)
 141 Pt    15.996437    5.553479   11.883701    ( 0.0000,  0.0000,  0.3500)
 142 Pt    16.907609    7.669165   13.276734    ( 0.0000,  0.0000,  0.3500)
 143 Pt    13.311356    5.455567   11.883790    ( 0.0000,  0.0000,  0.3500)
 144 Co    12.085156    7.686394   11.893743    ( 0.0000,  0.0000,  0.1900)
 145 Pt     9.353207    6.325012    9.682065    ( 0.0000,  0.0000,  0.3500)
 146 Pt    10.742204    5.473087   11.888634    ( 0.0000,  0.0000,  0.3500)

Unit cell:
           periodic     x           y           z      points  spacing
  1. axis:    no    23.961271    0.000000    0.000000   105     0.2282
  2. axis:    no     0.000000   23.961271    0.000000   105     0.2282
  3. axis:    no     0.000000    0.000000   23.961271   105     0.2282

  Lengths:  23.961271  23.961271  23.961271
  Angles:   90.000000  90.000000  90.000000

Effective grid spacing dv^(1/3) = 0.2282

                     log10-error:    total        iterations:
           time      wfs    density  energy       poisson  magmom
iter:   1  14:22:24                -1466.465289             +40.7008
iter:   2  14:24:13  -0.09  -1.11  -1311.486555             +23.3840
iter:   3  14:26:04  -0.42  -1.05  -1033.153272             +12.6528
iter:   4  14:27:53  -1.35  -1.33  -1002.747273             +10.2816
iter:   5  14:29:41  -1.66  -1.36  -983.033442             +10.3405
iter:   6  14:31:28  -1.74  -1.40  -991.378471             +10.9157
iter:   7  14:33:15  -1.56  -1.39  -1040.262177             +11.7656
iter:   8  14:35:03  -1.67  -1.33  -971.982508             +11.2191
iter:   9  14:36:53  -1.82  -1.47  -977.349058             +12.2831
iter:  10  14:38:41  -1.81  -1.46  -988.125268             +14.8872
iter:  11  14:40:29  -1.96  -1.44  -960.617120             +15.3702
iter:  12  14:42:17  -2.31  -1.53  -951.874739             +18.1668
iter:  13  14:44:04  -2.26  -1.59  -965.960470             +23.2534
iter:  14  14:45:52  -2.30  -1.54  -954.054317             +28.2641
iter:  15  14:47:43  -2.20  -1.60  -956.134931             +32.6420
iter:  16  14:49:35  -2.25  -1.61  -958.822322             +41.5870
iter:  17  14:51:26  -2.26  -1.61  -959.601073             +48.5941
iter:  18  14:53:14  -2.37  -1.63  -953.272256             +57.4623
iter:  19  14:55:02  -2.50  -1.70  -956.984138             +63.6954
iter:  20  14:56:51  -2.50  -1.69  -955.434305             +78.9018
iter:  21  14:58:38  -2.68  -1.75  -954.704328             +90.5549
iter:  22  15:00:26  -2.64  -1.81  -958.310343             +105.6276
iter:  23  15:02:14  -2.53  -1.82  -962.847989             +117.9827
iter:  24  15:04:01  -2.47  -1.81  -964.580358             +127.7534
iter:  25  15:05:49  -2.34  -1.83  -967.770290             +135.6003
iter:  26  15:07:36  -2.18  -1.84  -982.522444             +138.4391
iter:  27  15:09:24  -2.17  -1.70  -967.963590             +136.6409
iter:  28  15:11:12  -2.43  -1.86  -966.453585             +137.6100
iter:  29  15:13:00  -2.59  -1.90  -966.164159             +143.1681
iter:  30  15:14:49  -2.88  -1.91  -961.985259             +146.6189
iter:  31  15:16:37  -3.10  -2.00  -964.022956             +151.5020
iter:  32  15:18:59  -2.69  -1.97  -967.999418             +152.1216
iter:  33  15:20:47  -2.69  -1.92  -964.457909             +152.9610
iter:  34  15:22:35  -2.62  -2.01  -966.800088             +153.1831
iter:  35  15:24:22  -2.51  -1.95  -969.674684             +153.9212
iter:  36  15:26:10  -2.57  -1.91  -962.497233             +153.0430
iter:  37  15:27:58  -3.26  -2.09  -962.157452             +153.9289
iter:  38  15:29:46  -3.26  -2.14  -963.565746             +154.7113
iter:  39  15:31:33  -3.18  -2.10  -962.937147             +154.8945
iter:  40  15:33:21  -3.11  -2.13  -962.168403             +155.6600
iter:  41  15:35:08  -3.08  -2.29  -963.286836             +155.9732
iter:  42  15:36:56  -3.18  -2.27  -961.960179             +155.5084
iter:  43  15:38:44  -3.37  -2.46  -961.883056             +155.2742
iter:  44  15:40:32  -3.59  -2.50  -962.124909             +155.8443
iter:  45  15:42:21  -3.47  -2.52  -962.165743             +156.0374
iter:  46  15:44:08  -3.69  -2.48  -961.817100             +155.9696
iter:  47  15:45:57  -3.65  -2.58  -962.005565             +156.1080
iter:  48  15:47:45  -3.88  -2.56  -961.623284             +156.1474
iter:  49  15:49:37  -4.41  -2.74  -961.599416             +156.3564
iter:  50  15:51:26  -4.45  -2.78  -961.575287             +156.4101
iter:  51  15:55:13  -4.28  -2.87  -961.691967             +156.4052
iter:  52  15:57:03  -4.44  -2.77  -961.575333             +156.4222
iter:  53  15:58:52  -4.39  -2.93  -961.620501             +156.5060
iter:  54  16:00:41  -4.46  -2.92  -961.606026             +156.4773
iter:  55  16:02:44  -4.50  -2.96  -961.575938             +156.4049
iter:  56  16:04:34  -4.76  -3.04  -961.602959             +156.5242
iter:  57  16:06:22  -4.68  -2.99  -961.608292             +156.5768
iter:  58  16:08:10  -4.81  -2.98  -961.568441             +156.5671
iter:  59  16:12:24  -4.85  -3.10  -961.572147             +156.5616
iter:  60  16:16:12  -5.01  -3.17  -961.567393             +156.5215
iter:  61  16:20:37  -4.95  -3.20  -961.587674             +156.5820
iter:  62  16:25:01  -5.01  -3.10  -961.565456             +156.5899
iter:  63  16:28:47  -5.19  -3.32  -961.574518             +156.5495
iter:  64  16:32:34  -4.88  -3.28  -961.595582             +156.5476
iter:  65  16:36:32  -5.09  -3.15  -961.565283             +156.5412
iter:  66  16:40:51  -5.36  -3.47  -961.568073             +156.5147
iter:  67  16:44:21  -5.35  -3.49  -961.570459             +156.5166
iter:  68  16:47:27  -5.68  -3.41  -961.564853             +156.5318
iter:  69  16:51:52  -6.11  -3.58  -961.564033             +156.5541
iter:  70  16:56:11  -5.95  -3.63  -961.565569             +156.5481
iter:  71  16:58:50  -6.04  -3.58  -961.564442             +156.5437
iter:  72  17:00:38  -6.12  -3.69  -961.564060             +156.5535
iter:  73  17:02:27  -6.02  -3.75  -961.566203             +156.5547
iter:  74  17:04:15  -5.85  -3.67  -961.567044             +156.5512
iter:  75  17:06:18  -6.03  -3.60  -961.564835             +156.5471
iter:  76  17:08:10  -6.03  -3.78  -961.566125             +156.5536
iter:  77  17:10:00  -6.29  -3.67  -961.564448             +156.5561
iter:  78  17:11:49  -6.35  -3.82  -961.564117             +156.5512
iter:  79  17:13:37  -7.03  -3.89  -961.563926             +156.5518
iter:  80  17:15:26  -6.73  -3.97  -961.564631             +156.5517
iter:  81  17:18:30  -6.41  -3.92  -961.564648             +156.5528
iter:  82  17:22:25  -6.34  -3.87  -961.564833             +156.5534
iter:  83  17:24:15  -6.39  -3.88  -961.564169             +156.5502
iter:  84  17:26:04  -6.37  -4.08  -961.564905             +156.5496
iter:  85  17:27:52  -6.44  -3.94  -961.564532             +156.5492
iter:  86  17:29:41  -6.79  -4.06  -961.564255             +156.5497
iter:  87  17:31:29  -6.79  -4.19  -961.564340             +156.5498
iter:  88  17:33:17  -7.24  -4.13  -961.564178             +156.5501
iter:  89  17:35:05  -7.40  -4.31  -961.564177             +156.5510
iter:  90  17:36:53  -7.50  -4.34  -961.564141             +156.5513

Converged after 90 iterations.

Dipole moment: (-0.139648, 0.251023, -0.007923) |e|*Ang

Total magnetic moment: (0.000000, 0.000000, 156.551348)
Local magnetic moments:
   0 Pt ( 0.000000,  0.000000,  0.296888)
   1 Pt ( 0.000000,  0.000000,  0.319175)
   2 Co ( 0.000000,  0.000000,  2.085637)
   3 Pt ( 0.000000,  0.000000,  0.255075)
   4 Pt ( 0.000000,  0.000000,  0.338793)
   5 Co ( 0.000000,  0.000000,  1.951213)
   6 Pt ( 0.000000,  0.000000,  0.335754)
   7 Co ( 0.000000,  0.000000,  1.933110)
   8 Pt ( 0.000000,  0.000000,  0.334567)
   9 Pt ( 0.000000,  0.000000,  0.318583)
  10 Co ( 0.000000,  0.000000,  2.085897)
  11 Pt ( 0.000000,  0.000000,  0.254401)
  12 Pt ( 0.000000,  0.000000,  0.291790)
  13 Co ( 0.000000,  0.000000,  1.925716)
  14 Co ( 0.000000,  0.000000,  2.028570)
  15 Pt ( 0.000000,  0.000000,  0.331357)
  16 Co ( 0.000000,  0.000000,  2.027005)
  17 Pt ( 0.000000,  0.000000,  0.321899)
  18 Co ( 0.000000,  0.000000,  2.042390)
  19 Co ( 0.000000,  0.000000,  1.944223)
  20 Co ( 0.000000,  0.000000,  1.937400)
  21 Pt ( 0.000000,  0.000000,  0.299794)
  22 Pt ( 0.000000,  0.000000,  0.332975)
  23 Co ( 0.000000,  0.000000,  1.932844)
  24 Co ( 0.000000,  0.000000,  2.038500)
  25 Pt ( 0.000000,  0.000000,  0.333320)
  26 Co ( 0.000000,  0.000000,  1.941698)
  27 Co ( 0.000000,  0.000000,  2.038350)
  28 Pt ( 0.000000,  0.000000,  0.331903)
  29 Pt ( 0.000000,  0.000000,  0.334066)
  30 Pt ( 0.000000,  0.000000,  0.335977)
  31 Pt ( 0.000000,  0.000000,  0.333039)
  32 Co ( 0.000000,  0.000000,  1.943656)
  33 Pt ( 0.000000,  0.000000,  0.333449)
  34 Pt ( 0.000000,  0.000000,  0.307472)
  35 Co ( 0.000000,  0.000000,  2.085459)
  36 Co ( 0.000000,  0.000000,  1.948104)
  37 Pt ( 0.000000,  0.000000,  0.252596)
  38 Pt ( 0.000000,  0.000000,  0.324683)
  39 Co ( 0.000000,  0.000000,  2.033202)
  40 Co ( 0.000000,  0.000000,  2.035030)
  41 Pt ( 0.000000,  0.000000,  0.290896)
  42 Co ( 0.000000,  0.000000,  2.075114)
  43 Co ( 0.000000,  0.000000,  1.937229)
  44 Pt ( 0.000000,  0.000000,  0.334294)
  45 Co ( 0.000000,  0.000000,  1.663792)
  46 Co ( 0.000000,  0.000000,  1.940772)
  47 Pt ( 0.000000,  0.000000,  0.332564)
  48 Co ( 0.000000,  0.000000,  1.935534)
  49 Pt ( 0.000000,  0.000000,  0.332344)
  50 Pt ( 0.000000,  0.000000,  0.299540)
  51 Pt ( 0.000000,  0.000000,  0.332978)
  52 Pt ( 0.000000,  0.000000,  0.331025)
  53 Pt ( 0.000000,  0.000000,  0.307056)
  54 Co ( 0.000000,  0.000000,  2.085177)
  55 Pt ( 0.000000,  0.000000,  0.253175)
  56 Pt ( 0.000000,  0.000000,  0.327003)
  57 Pt ( 0.000000,  0.000000,  0.335370)
  58 Co ( 0.000000,  0.000000,  1.949271)
  59 Co ( 0.000000,  0.000000,  1.946788)
  60 Co ( 0.000000,  0.000000,  2.035484)
  61 Pt ( 0.000000,  0.000000,  0.336471)
  62 Pt ( 0.000000,  0.000000,  0.334444)
  63 Co ( 0.000000,  0.000000,  1.930792)
  64 Pt ( 0.000000,  0.000000,  0.296569)
  65 Co ( 0.000000,  0.000000,  1.671050)
  66 Co ( 0.000000,  0.000000,  2.068327)
  67 Pt ( 0.000000,  0.000000,  0.229671)
  68 Pt ( 0.000000,  0.000000,  0.297393)
  69 Co ( 0.000000,  0.000000,  1.945695)
  70 Co ( 0.000000,  0.000000,  2.036735)
  71 Co ( 0.000000,  0.000000,  2.043587)
  72 Pt ( 0.000000,  0.000000,  0.333303)
  73 Pt ( 0.000000,  0.000000,  0.330749)
  74 Pt ( 0.000000,  0.000000,  0.330095)
  75 Co ( 0.000000,  0.000000,  2.027237)
  76 Co ( 0.000000,  0.000000,  1.944671)
  77 Co ( 0.000000,  0.000000,  1.934558)
  78 Pt ( 0.000000,  0.000000,  0.339120)
  79 Pt ( 0.000000,  0.000000,  0.324382)
  80 Pt ( 0.000000,  0.000000,  0.305604)
  81 Co ( 0.000000,  0.000000,  2.082109)
  82 Pt ( 0.000000,  0.000000,  0.254430)
  83 Pt ( 0.000000,  0.000000,  0.330569)
  84 Co ( 0.000000,  0.000000,  2.027309)
  85 Pt ( 0.000000,  0.000000,  0.329373)
  86 Pt ( 0.000000,  0.000000,  0.306356)
  87 Co ( 0.000000,  0.000000,  2.082990)
  88 Pt ( 0.000000,  0.000000,  0.254001)
  89 Co ( 0.000000,  0.000000,  1.932182)
  90 Pt ( 0.000000,  0.000000,  0.299402)
  91 Co ( 0.000000,  0.000000,  1.936871)
  92 Co ( 0.000000,  0.000000,  1.935119)
  93 Pt ( 0.000000,  0.000000,  0.334866)
  94 Co ( 0.000000,  0.000000,  2.035428)
  95 Pt ( 0.000000,  0.000000,  0.299976)
  96 Pt ( 0.000000,  0.000000,  0.334527)
  97 Co ( 0.000000,  0.000000,  1.937084)
  98 Pt ( 0.000000,  0.000000,  0.334560)
  99 Pt ( 0.000000,  0.000000,  0.301386)
 100 Co ( 0.000000,  0.000000,  1.940784)
 101 Co ( 0.000000,  0.000000,  2.037192)
 102 Pt ( 0.000000,  0.000000,  0.335074)
 103 Pt ( 0.000000,  0.000000,  0.336440)
 104 Pt ( 0.000000,  0.000000,  0.320302)
 105 Co ( 0.000000,  0.000000,  2.084725)
 106 Pt ( 0.000000,  0.000000,  0.254505)
 107 Pt ( 0.000000,  0.000000,  0.335836)
 108 Pt ( 0.000000,  0.000000,  0.333965)
 109 Co ( 0.000000,  0.000000,  1.943212)
 110 Pt ( 0.000000,  0.000000,  0.336162)
 111 Co ( 0.000000,  0.000000,  2.042764)
 112 Co ( 0.000000,  0.000000,  2.037328)
 113 Co ( 0.000000,  0.000000,  2.033481)
 114 Co ( 0.000000,  0.000000,  2.035982)
 115 Co ( 0.000000,  0.000000,  1.945915)
 116 Pt ( 0.000000,  0.000000,  0.333954)
 117 Co ( 0.000000,  0.000000,  1.645461)
 118 Co ( 0.000000,  0.000000,  2.063523)
 119 Pt ( 0.000000,  0.000000,  0.226893)
 120 Pt ( 0.000000,  0.000000,  0.287760)
 121 Pt ( 0.000000,  0.000000,  0.295679)
 122 Pt ( 0.000000,  0.000000,  0.300272)
 123 Pt ( 0.000000,  0.000000,  0.297322)
 124 Co ( 0.000000,  0.000000,  2.041835)
 125 Co ( 0.000000,  0.000000,  1.941421)
 126 Pt ( 0.000000,  0.000000,  0.335240)
 127 Co ( 0.000000,  0.000000,  1.931841)
 128 Co ( 0.000000,  0.000000,  2.037646)
 129 Pt ( 0.000000,  0.000000,  0.335905)
 130 Pt ( 0.000000,  0.000000,  0.335249)
 131 Co ( 0.000000,  0.000000,  1.937648)
 132 Pt ( 0.000000,  0.000000,  0.334875)
 133 Co ( 0.000000,  0.000000,  1.944514)
 134 Pt ( 0.000000,  0.000000,  0.320863)
 135 Co ( 0.000000,  0.000000,  2.084017)
 136 Pt ( 0.000000,  0.000000,  0.254517)
 137 Pt ( 0.000000,  0.000000,  0.337703)
 138 Co ( 0.000000,  0.000000,  1.950811)
 139 Co ( 0.000000,  0.000000,  1.680809)
 140 Co ( 0.000000,  0.000000,  2.064436)
 141 Pt ( 0.000000,  0.000000,  0.229181)
 142 Pt ( 0.000000,  0.000000,  0.295545)
 143 Pt ( 0.000000,  0.000000,  0.293719)
 144 Co ( 0.000000,  0.000000,  1.930961)
 145 Pt ( 0.000000,  0.000000,  0.334388)
 146 Pt ( 0.000000,  0.000000,  0.333103)

Energy contributions relative to reference atoms: (reference = -42569510.585079)

Kinetic:       +106.212163
Potential:     -185.497475
External:        +0.000000
XC:            -879.516170
Entropy (-ST):   -6.227354
Local:           +0.351018
--------------------------
Free energy:   -964.677818
Extrapolated:  -961.564141

Spin contamination: 5.679423 electrons
                   Up                     Down
 Band  Eigenvalues  Occupancy  Eigenvalues  Occupancy
    0    -56.19507    1.00000    -55.93943    1.00000
    1    -56.18169    1.00000    -55.92878    1.00000
    2    -56.17694    1.00000    -55.92564    1.00000
    3    -56.16945    1.00000    -55.91379    1.00000
    4    -56.16656    1.00000    -55.91120    1.00000
    5    -56.15235    1.00000    -55.88305    1.00000
    6    -56.13368    1.00000    -55.88099    1.00000
    7    -56.11225    1.00000    -55.85736    1.00000
    8    -56.09555    1.00000    -55.83673    1.00000
    9    -56.08603    1.00000    -55.82938    1.00000
   10    -56.07408    1.00000    -55.82275    1.00000
   11    -56.06149    1.00000    -55.80030    1.00000
   12    -56.03194    1.00000    -55.77488    1.00000
   13    -56.00857    1.00000    -55.75355    1.00000
   14    -56.00771    1.00000    -55.74024    1.00000
   15    -56.00491    1.00000    -55.73178    1.00000
   16    -55.99141    1.00000    -55.72802    1.00000
   17    -55.98237    1.00000    -55.72590    1.00000
   18    -55.97849    1.00000    -55.71918    1.00000
   19    -55.97087    1.00000    -55.71339    1.00000
   20    -55.95002    1.00000    -55.69894    1.00000
   21    -55.94922    1.00000    -55.69802    1.00000
   22    -55.94760    1.00000    -55.69665    1.00000
   23    -55.94103    1.00000    -55.68959    1.00000
   24    -55.92447    1.00000    -55.68279    1.00000
   25    -55.91785    1.00000    -55.67970    1.00000
   26    -55.89590    1.00000    -55.65545    1.00000
   27    -55.50509    1.00000    -55.27634    1.00000
   28    -55.50363    1.00000    -55.26887    1.00000
   29    -55.49425    1.00000    -55.26730    1.00000
   30    -55.49227    1.00000    -55.26549    1.00000
   31    -55.49049    1.00000    -55.26289    1.00000
   32    -55.48775    1.00000    -55.26110    1.00000
   33    -55.48433    1.00000    -55.26028    1.00000
   34    -55.48284    1.00000    -55.25822    1.00000
   35    -55.48080    1.00000    -55.25431    1.00000
   36    -55.48034    1.00000    -55.24776    1.00000
   37    -55.47232    1.00000    -55.24289    1.00000
   38    -55.47141    1.00000    -55.23952    1.00000
   39    -55.46576    1.00000    -55.23867    1.00000
   40    -55.45699    1.00000    -55.22719    1.00000
   41    -55.45326    1.00000    -55.22370    1.00000
   42    -55.44923    1.00000    -55.21818    1.00000
   43    -55.44497    1.00000    -55.21744    1.00000
   44    -55.44481    1.00000    -55.21592    1.00000
   45    -55.44267    1.00000    -55.21220    1.00000
   46    -55.43916    1.00000    -55.21042    1.00000
   47    -55.43887    1.00000    -55.20893    1.00000
   48    -55.43669    1.00000    -55.20810    1.00000
   49    -55.43541    1.00000    -55.20602    1.00000
   50    -55.43257    1.00000    -55.20343    1.00000
   51    -55.43019    1.00000    -55.19899    1.00000
   52    -55.42666    1.00000    -55.18817    1.00000
   53    -55.41417    1.00000    -55.18013    1.00000
   54    -55.41216    1.00000    -55.17369    1.00000
   55    -55.39051    1.00000    -55.15375    1.00000
   56    -55.38439    1.00000    -55.15255    1.00000
   57    -55.23920    1.00000    -55.01375    1.00000
   58    -55.23774    1.00000    -55.01191    1.00000
   59    -55.23434    1.00000    -55.00887    1.00000
   60    -55.23244    1.00000    -55.00780    1.00000
   61    -55.23003    1.00000    -55.00257    1.00000
   62    -55.22718    1.00000    -55.00189    1.00000
   63    -55.22121    1.00000    -54.99413    1.00000
   64    -55.22033    1.00000    -54.99186    1.00000
   65    -55.21598    1.00000    -54.99105    1.00000
   66    -55.21570    1.00000    -54.98899    1.00000
   67    -55.21325    1.00000    -54.98857    1.00000
   68    -55.21091    1.00000    -54.98677    1.00000
   69    -55.20924    1.00000    -54.98620    1.00000
   70    -55.20847    1.00000    -54.98330    1.00000
   71    -55.20482    1.00000    -54.98279    1.00000
   72    -55.20361    1.00000    -54.97995    1.00000
   73    -55.19876    1.00000    -54.97658    1.00000
   74    -55.19525    1.00000    -54.97286    1.00000
   75    -55.19119    1.00000    -54.97085    1.00000
   76    -55.18814    1.00000    -54.96842    1.00000
   77    -55.18271    1.00000    -54.96011    1.00000
   78    -55.17571    1.00000    -54.95745    1.00000
   79    -55.17438    1.00000    -54.95528    1.00000
   80    -55.16777    1.00000    -54.95434    1.00000
   81    -55.16484    1.00000    -54.95362    1.00000
   82    -55.16319    1.00000    -54.95140    1.00000
   83    -55.16237    1.00000    -54.95052    1.00000
   84    -55.15926    1.00000    -54.94848    1.00000
   85    -55.15780    1.00000    -54.94730    1.00000
   86    -55.15606    1.00000    -54.94585    1.00000
   87    -55.13897    1.00000    -54.93939    1.00000
   88    -55.13664    1.00000    -54.93623    1.00000
   89    -55.13413    1.00000    -54.93110    1.00000
   90    -55.13324    1.00000    -54.92851    1.00000
   91    -55.13206    1.00000    -54.92757    1.00000
   92    -55.13070    1.00000    -54.92506    1.00000
   93    -55.12671    1.00000    -54.92388    1.00000
   94    -55.12087    1.00000    -54.92325    1.00000
   95    -55.12034    1.00000    -54.92219    1.00000
   96    -55.11905    1.00000    -54.92078    1.00000
   97    -55.11802    1.00000    -54.91874    1.00000
   98    -55.11665    1.00000    -54.91800    1.00000
   99    -55.11469    1.00000    -54.91762    1.00000
  100    -55.11458    1.00000    -54.91601    1.00000
  101    -55.11396    1.00000    -54.91430    1.00000
  102    -55.11233    1.00000    -54.91263    1.00000
  103    -55.11037    1.00000    -54.91096    1.00000
  104    -55.10965    1.00000    -54.89969    1.00000
  105    -55.10815    1.00000    -54.89938    1.00000
  106    -55.10627    1.00000    -54.89774    1.00000
  107    -55.10392    1.00000    -54.89568    1.00000
  108    -55.10332    1.00000    -54.89229    1.00000
  109    -55.10049    1.00000    -54.88126    1.00000
  110    -55.09825    1.00000    -54.88019    1.00000
  111    -55.04426    1.00000    -54.84058    1.00000
  112    -55.04412    1.00000    -54.83929    1.00000
  113    -55.04208    1.00000    -54.83686    1.00000
  114    -55.04173    1.00000    -54.83543    1.00000
  115    -55.04068    1.00000    -54.83420    1.00000
  116    -55.03872    1.00000    -54.83365    1.00000
  117    -55.03735    1.00000    -54.83234    1.00000
  118    -55.03605    1.00000    -54.83079    1.00000
  119    -55.03536    1.00000    -54.82939    1.00000
  120    -55.03483    1.00000    -54.82815    1.00000
  121    -55.03323    1.00000    -54.82604    1.00000
  122    -55.03215    1.00000    -54.82557    1.00000
  123    -55.03051    1.00000    -54.82452    1.00000
  124    -55.03002    1.00000    -54.82221    1.00000
  125    -55.02951    1.00000    -54.82181    1.00000
  126    -55.02578    1.00000    -54.81933    1.00000
  127    -55.02441    1.00000    -54.81875    1.00000
  128    -55.02420    1.00000    -54.81815    1.00000
  129    -55.02061    1.00000    -54.81595    1.00000
  130    -55.01722    1.00000    -54.81346    1.00000
  131    -55.01577    1.00000    -54.81297    1.00000
  132    -55.01465    1.00000    -54.81198    1.00000
  133    -55.01279    1.00000    -54.80834    1.00000
  134    -55.01247    1.00000    -54.80725    1.00000
  135    -55.01048    1.00000    -54.77210    1.00000
  136    -55.00830    1.00000    -54.77032    1.00000
  137    -55.00805    1.00000    -54.76500    1.00000
  138    -55.00506    1.00000    -54.76434    1.00000
  139    -55.00406    1.00000    -54.76292    1.00000
  140    -55.00291    1.00000    -54.76197    1.00000
  141    -55.00273    1.00000    -54.76125    1.00000
  142    -55.00154    1.00000    -54.76080    1.00000
  143    -55.00046    1.00000    -54.75939    1.00000
  144    -54.97964    1.00000    -54.75888    1.00000
  145    -54.97871    1.00000    -54.75856    1.00000
  146    -54.97629    1.00000    -54.75717    1.00000
  147    -54.97479    1.00000    -54.75697    1.00000
  148    -54.97382    1.00000    -54.75592    1.00000
  149    -54.97344    1.00000    -54.75523    1.00000
  150    -54.97192    1.00000    -54.75434    1.00000
  151    -54.97073    1.00000    -54.75333    1.00000
  152    -54.96984    1.00000    -54.75171    1.00000
  153    -54.96921    1.00000    -54.75131    1.00000
  154    -54.96776    1.00000    -54.74999    1.00000
  155    -54.96764    1.00000    -54.74777    1.00000
  156    -54.96690    1.00000    -54.74739    1.00000
  157    -54.96620    1.00000    -54.74674    1.00000
  158    -54.96474    1.00000    -54.74195    1.00000
  159    -54.96421    1.00000    -54.74020    1.00000
  160    -54.96347    1.00000    -54.73780    1.00000
  161    -54.96297    1.00000    -54.73693    1.00000
  162    -54.96160    1.00000    -54.73613    1.00000
  163    -54.95974    1.00000    -54.73344    1.00000
  164    -54.95871    1.00000    -54.73194    1.00000
  165    -54.95848    1.00000    -54.73112    1.00000
  166    -54.95685    1.00000    -54.73010    1.00000
  167    -54.95679    1.00000    -54.72961    1.00000
  168    -54.95602    1.00000    -54.72798    1.00000
  169    -54.95385    1.00000    -54.72718    1.00000
  170    -54.95369    1.00000    -54.72565    1.00000
  171    -54.95244    1.00000    -54.72472    1.00000
  172    -54.95180    1.00000    -54.72395    1.00000
  173    -54.95137    1.00000    -54.72379    1.00000
  174    -54.95089    1.00000    -54.72276    1.00000
  175    -54.95015    1.00000    -54.72091    1.00000
  176    -54.94961    1.00000    -54.72000    1.00000
  177    -54.94938    1.00000    -54.71980    1.00000
  178    -54.94840    1.00000    -54.71646    1.00000
  179    -54.94591    1.00000    -54.71434    1.00000
  180    -54.94546    1.00000    -54.71401    1.00000
  181    -54.94409    1.00000    -54.71240    1.00000
  182    -54.94324    1.00000    -54.70899    1.00000
  183    -54.94209    1.00000    -54.70738    1.00000
  184    -54.94180    1.00000    -54.70653    1.00000
  185    -54.94051    1.00000    -54.70573    1.00000
  186    -54.94007    1.00000    -54.70473    1.00000
  187    -54.93990    1.00000    -54.70410    1.00000
  188    -54.93839    1.00000    -54.70275    1.00000
  189    -54.93558    1.00000    -54.70056    1.00000
  190    -54.93328    1.00000    -54.69995    1.00000
  191    -54.93255    1.00000    -54.69744    1.00000
  192    -54.93165    1.00000    -54.69683    1.00000
  193    -54.92757    1.00000    -54.69560    1.00000
  194    -54.92555    1.00000    -54.69491    1.00000
  195    -54.92382    1.00000    -54.69216    1.00000
  196    -54.92167    1.00000    -54.69162    1.00000
  197    -54.92035    1.00000    -54.69008    1.00000
  198    -54.91946    1.00000    -54.68692    1.00000
  199    -54.91783    1.00000    -54.68460    1.00000
  200    -54.91545    1.00000    -54.68392    1.00000
  201    -54.90581    1.00000    -54.68138    1.00000
  202    -54.90566    1.00000    -54.67933    1.00000
  203    -54.90421    1.00000    -54.67878    1.00000
  204    -54.90084    1.00000    -54.67630    1.00000
  205    -54.89496    1.00000    -54.67606    1.00000
  206    -54.88378    1.00000    -54.66878    1.00000
  207    -54.78649    1.00000    -54.63298    1.00000
  208    -54.78289    1.00000    -54.62999    1.00000
  209    -54.78208    1.00000    -54.62764    1.00000
  210    -54.78168    1.00000    -54.62590    1.00000
  211    -54.78112    1.00000    -54.62481    1.00000
  212    -54.78046    1.00000    -54.62066    1.00000
  213    -54.77959    1.00000    -54.61915    1.00000
  214    -54.77848    1.00000    -54.61726    1.00000
  215    -54.77826    1.00000    -54.61652    1.00000
  216    -54.77748    1.00000    -54.61594    1.00000
  217    -54.77736    1.00000    -54.61513    1.00000
  218    -54.77550    1.00000    -54.61447    1.00000
  219    -54.77524    1.00000    -54.61347    1.00000
  220    -54.77445    1.00000    -54.61186    1.00000
  221    -54.77392    1.00000    -54.61048    1.00000
  222    -54.77346    1.00000    -54.61001    1.00000
  223    -54.77258    1.00000    -54.60800    1.00000
  224    -54.77211    1.00000    -54.60672    1.00000
  225    -54.77157    1.00000    -54.60396    1.00000
  226    -54.77040    1.00000    -54.60354    1.00000
  227    -54.76983    1.00000    -54.60245    1.00000
  228    -54.76899    1.00000    -54.60127    1.00000
  229    -54.76805    1.00000    -54.59218    1.00000
  230    -54.76731    1.00000    -54.59043    1.00000
  231    -54.76611    1.00000    -54.58920    1.00000
  232    -54.76045    1.00000    -54.58767    1.00000
  233    -54.75990    1.00000    -54.58684    1.00000
  234    -54.75935    1.00000    -54.58533    1.00000
  235    -54.75885    1.00000    -54.58436    1.00000
  236    -54.75504    1.00000    -54.58367    1.00000
  237    -54.72772    1.00000    -54.56110    1.00000
  238    -54.72314    1.00000    -54.55707    1.00000
  239    -54.71547    1.00000    -54.55192    1.00000
  240    -11.98995    1.00000    -11.95521    1.00000
  241    -11.10927    1.00000    -11.05303    1.00000
  242    -11.04689    1.00000    -10.99091    1.00000
  243    -10.90386    1.00000    -10.84811    1.00000
  244    -10.36305    1.00000    -10.27982    1.00000
  245    -10.26227    1.00000    -10.17841    1.00000
  246    -10.25582    1.00000    -10.17266    1.00000
  247    -10.24746    1.00000    -10.16356    1.00000
  248    -10.21213    1.00000    -10.13552    1.00000
  249    -10.16948    1.00000    -10.09518    1.00000
  250     -9.79611    1.00000     -9.67872    1.00000
  251     -9.78846    1.00000     -9.67764    1.00000
  252     -9.73977    1.00000     -9.62703    1.00000
  253     -9.72153    1.00000     -9.60903    1.00000
  254     -9.69430    1.00000     -9.58060    1.00000
  255     -9.59662    1.00000     -9.43217    1.00000
  256     -9.53199    1.00000     -9.37845    1.00000
  257     -9.46039    1.00000     -9.34864    1.00000
  258     -9.44056    1.00000     -9.32420    1.00000
  259     -9.40442    1.00000     -9.29722    1.00000
  260     -9.38179    1.00000     -9.27514    1.00000
  261     -9.32954    1.00000     -9.07718    1.00000
  262     -9.29998    1.00000     -9.04627    1.00000
  263     -9.15804    1.00000     -8.92568    1.00000
  264     -9.11010    1.00000     -8.86849    1.00000
  265     -9.08702    1.00000     -8.86278    1.00000
  266     -9.04711    1.00000     -8.82511    1.00000
  267     -8.98464    1.00000     -8.79058    1.00000
  268     -8.95994    1.00000     -8.77786    1.00000
  269     -8.92874    1.00000     -8.77513    1.00000
  270     -8.92759    1.00000     -8.74935    1.00000
  271     -8.91998    1.00000     -8.73934    1.00000
  272     -8.89745    1.00000     -8.68676    1.00000
  273     -8.86865    1.00000     -8.66233    1.00000
  274     -8.84432    1.00000     -8.65288    1.00000
  275     -8.82673    1.00000     -8.63389    1.00000
  276     -8.80121    1.00000     -8.60287    1.00000
  277     -8.79091    1.00000     -8.58129    1.00000
  278     -8.77648    1.00000     -8.55239    1.00000
  279     -8.76533    1.00000     -8.54387    1.00000
  280     -8.73823    1.00000     -8.49719    1.00000
  281     -8.69049    1.00000     -8.44094    1.00000
  282     -8.67793    1.00000     -8.41462    1.00000
  283     -8.66950    1.00000     -8.38797    1.00000
  284     -8.66714    1.00000     -8.37448    1.00000
  285     -8.62211    1.00000     -8.32163    1.00000
  286     -8.58547    1.00000     -8.27805    1.00000
  287     -8.57502    1.00000     -8.25466    1.00000
  288     -8.54667    1.00000     -8.25063    1.00000
  289     -8.50929    1.00000     -8.24280    1.00000
  290     -8.49943    1.00000     -8.23613    1.00000
  291     -8.47922    1.00000     -8.22901    1.00000
  292     -8.47210    1.00000     -8.22596    1.00000
  293     -8.46900    1.00000     -8.19558    1.00000
  294     -8.46468    1.00000     -8.16958    1.00000
  295     -8.44499    1.00000     -8.14428    1.00000
  296     -8.43838    1.00000     -8.11522    1.00000
  297     -8.43266    1.00000     -8.10041    1.00000
  298     -8.40241    1.00000     -8.06668    1.00000
  299     -8.39991    1.00000     -8.06327    1.00000
  300     -8.36311    1.00000     -8.03015    1.00000
  301     -8.34941    1.00000     -8.00887    1.00000
  302     -8.33794    1.00000     -8.00361    1.00000
  303     -8.29335    1.00000     -8.00148    1.00000
  304     -8.28225    1.00000     -7.99146    1.00000
  305     -8.27456    1.00000     -7.98813    1.00000
  306     -8.27231    1.00000     -7.98231    1.00000
  307     -8.26800    1.00000     -7.95754    1.00000
  308     -8.26505    1.00000     -7.95585    1.00000
  309     -8.24530    1.00000     -7.95150    1.00000
  310     -8.22647    1.00000     -7.94912    1.00000
  311     -8.19709    1.00000     -7.93132    1.00000
  312     -8.19231    1.00000     -7.92648    1.00000
  313     -8.17867    1.00000     -7.89221    1.00000
  314     -8.17564    1.00000     -7.88472    1.00000
  315     -8.17059    1.00000     -7.88375    1.00000
  316     -8.15913    1.00000     -7.85493    1.00000
  317     -8.12477    1.00000     -7.84239    1.00000
  318     -8.09409    1.00000     -7.82200    1.00000
  319     -8.05554    1.00000     -7.77767    1.00000
  320     -8.02988    1.00000     -7.75756    1.00000
  321     -8.01507    1.00000     -7.74181    1.00000
  322     -7.98337    1.00000     -7.67662    1.00000
  323     -7.93587    1.00000     -7.60704    1.00000
  324     -7.92822    1.00000     -7.56772    1.00000
  325     -7.89516    1.00000     -7.56518    1.00000
  326     -7.89366    1.00000     -7.55276    1.00000
  327     -7.88829    1.00000     -7.53744    1.00000
  328     -7.88568    1.00000     -7.52165    1.00000
  329     -7.87711    1.00000     -7.51789    1.00000
  330     -7.87427    1.00000     -7.50976    1.00000
  331     -7.87352    1.00000     -7.50212    1.00000
  332     -7.86546    1.00000     -7.48914    1.00000
  333     -7.86092    1.00000     -7.48562    1.00000
  334     -7.85614    1.00000     -7.47715    1.00000
  335     -7.84775    1.00000     -7.44707    1.00000
  336     -7.84093    1.00000     -7.43514    1.00000
  337     -7.84001    1.00000     -7.39151    1.00000
  338     -7.82073    1.00000     -7.38437    1.00000
  339     -7.81583    1.00000     -7.37322    1.00000
  340     -7.79766    1.00000     -7.36287    1.00000
  341     -7.78805    1.00000     -7.35749    1.00000
  342     -7.76165    1.00000     -7.34902    1.00000
  343     -7.75667    1.00000     -7.34181    1.00000
  344     -7.75568    1.00000     -7.33273    1.00000
  345     -7.74306    1.00000     -7.32241    1.00000
  346     -7.72669    1.00000     -7.31128    1.00000
  347     -7.72441    1.00000     -7.29834    1.00000
  348     -7.71181    1.00000     -7.28146    1.00000
  349     -7.71016    1.00000     -7.27185    1.00000
  350     -7.70402    1.00000     -7.26252    1.00000
  351     -7.70080    1.00000     -7.25183    1.00000
  352     -7.68332    1.00000     -7.24065    1.00000
  353     -7.65414    1.00000     -7.23888    1.00000
  354     -7.65397    1.00000     -7.21644    1.00000
  355     -7.65160    1.00000     -7.20780    1.00000
  356     -7.64159    1.00000     -7.20113    1.00000
  357     -7.63120    1.00000     -7.19497    1.00000
  358     -7.61041    1.00000     -7.16654    1.00000
  359     -7.59979    1.00000     -7.13940    1.00000
  360     -7.59474    1.00000     -7.11660    1.00000
  361     -7.57495    1.00000     -7.11588    1.00000
  362     -7.56411    1.00000     -7.11222    1.00000
  363     -7.56079    1.00000     -7.11095    1.00000
  364     -7.55912    1.00000     -7.09528    1.00000
  365     -7.54671    1.00000     -7.08705    1.00000
  366     -7.54484    1.00000     -7.08444    1.00000
  367     -7.52824    1.00000     -7.07936    1.00000
  368     -7.51256    1.00000     -7.07352    1.00000
  369     -7.50103    1.00000     -7.06274    1.00000
  370     -7.49466    1.00000     -7.06131    1.00000
  371     -7.48383    1.00000     -7.04258    1.00000
  372     -7.47915    1.00000     -7.03265    1.00000
  373     -7.47504    1.00000     -7.01502    1.00000
  374     -7.47474    1.00000     -7.00999    1.00000
  375     -7.47108    1.00000     -6.99185    1.00000
  376     -7.45872    1.00000     -6.97572    1.00000
  377     -7.45626    1.00000     -6.96649    1.00000
  378     -7.45406    1.00000     -6.96231    1.00000
  379     -7.45062    1.00000     -6.95319    1.00000
  380     -7.44704    1.00000     -6.94942    1.00000
  381     -7.44096    1.00000     -6.94324    1.00000
  382     -7.43808    1.00000     -6.94095    1.00000
  383     -7.42889    1.00000     -6.93254    1.00000
  384     -7.42530    1.00000     -6.93046    1.00000
  385     -7.40386    1.00000     -6.92898    1.00000
  386     -7.38688    1.00000     -6.92622    1.00000
  387     -7.36796    1.00000     -6.92280    1.00000
  388     -7.35384    1.00000     -6.91606    1.00000
  389     -7.32983    1.00000     -6.91087    1.00000
  390     -7.32285    1.00000     -6.90909    1.00000
  391     -7.31409    1.00000     -6.90424    1.00000
  392     -7.31161    1.00000     -6.90211    1.00000
  393     -7.30475    1.00000     -6.90044    1.00000
  394     -7.30248    1.00000     -6.87446    1.00000
  395     -7.29427    1.00000     -6.86010    1.00000
  396     -7.29144    1.00000     -6.84353    1.00000
  397     -7.28539    1.00000     -6.84229    1.00000
  398     -7.28071    1.00000     -6.83518    1.00000
  399     -7.27968    1.00000     -6.83290    1.00000
  400     -7.27630    1.00000     -6.81221    1.00000
  401     -7.27346    1.00000     -6.80928    1.00000
  402     -7.26088    1.00000     -6.80012    1.00000
  403     -7.25744    1.00000     -6.79406    1.00000
  404     -7.23058    1.00000     -6.78865    1.00000
  405     -7.22810    1.00000     -6.78652    1.00000
  406     -7.22497    1.00000     -6.78309    1.00000
  407     -7.21681    1.00000     -6.78121    1.00000
  408     -7.21306    1.00000     -6.77950    1.00000
  409     -7.21128    1.00000     -6.77692    1.00000
  410     -7.20161    1.00000     -6.77352    1.00000
  411     -7.18801    1.00000     -6.77264    1.00000
  412     -7.18646    1.00000     -6.76328    1.00000
  413     -7.18196    1.00000     -6.75995    1.00000
  414     -7.17168    1.00000     -6.74620    1.00000
  415     -7.14048    1.00000     -6.73633    1.00000
  416     -7.12974    1.00000     -6.71554    1.00000
  417     -7.11892    1.00000     -6.70976    1.00000
  418     -7.10249    1.00000     -6.69703    1.00000
  419     -7.08926    1.00000     -6.62882    1.00000
  420     -7.08617    1.00000     -6.60731    1.00000
  421     -7.07718    1.00000     -6.60439    1.00000
  422     -7.07595    1.00000     -6.58700    1.00000
  423     -7.06664    1.00000     -6.58069    1.00000
  424     -7.06125    1.00000     -6.57579    1.00000
  425     -7.05748    1.00000     -6.57264    1.00000
  426     -7.04765    1.00000     -6.56176    1.00000
  427     -7.03684    1.00000     -6.56001    1.00000
  428     -7.02647    1.00000     -6.53898    1.00000
  429     -7.02237    1.00000     -6.52840    1.00000
  430     -7.01548    1.00000     -6.52353    1.00000
  431     -7.01018    1.00000     -6.48062    1.00000
  432     -7.00451    1.00000     -6.47630    1.00000
  433     -6.99707    1.00000     -6.46126    1.00000
  434     -6.98576    1.00000     -6.44688    1.00000
  435     -6.97560    1.00000     -6.43897    1.00000
  436     -6.96475    1.00000     -6.43537    1.00000
  437     -6.93898    1.00000     -6.40063    1.00000
  438     -6.93360    1.00000     -6.36878    1.00000
  439     -6.92427    1.00000     -6.36444    1.00000
  440     -6.92049    1.00000     -6.36279    1.00000
  441     -6.91408    1.00000     -6.34824    1.00000
  442     -6.91017    1.00000     -6.30758    1.00000
  443     -6.89911    1.00000     -6.29620    1.00000
  444     -6.88522    1.00000     -6.29379    1.00000
  445     -6.87843    1.00000     -6.27897    1.00000
  446     -6.87078    1.00000     -6.27209    1.00000
  447     -6.85543    1.00000     -6.25083    1.00000
  448     -6.83645    1.00000     -6.22883    1.00000
  449     -6.83456    1.00000     -6.22697    1.00000
  450     -6.82351    1.00000     -6.21891    1.00000
  451     -6.79529    1.00000     -6.21324    1.00000
  452     -6.78910    1.00000     -6.20608    1.00000
  453     -6.78295    1.00000     -6.20244    1.00000
  454     -6.77974    1.00000     -6.18549    1.00000
  455     -6.77320    1.00000     -6.15968    1.00000
  456     -6.76259    1.00000     -6.14694    1.00000
  457     -6.76197    1.00000     -6.12431    1.00000
  458     -6.74942    1.00000     -6.11831    1.00000
  459     -6.74698    1.00000     -6.09686    1.00000
  460     -6.74393    1.00000     -6.06410    1.00000
  461     -6.74124    1.00000     -6.04765    1.00000
  462     -6.73392    1.00000     -6.03740    1.00000
  463     -6.72750    1.00000     -6.03408    1.00000
  464     -6.70774    1.00000     -6.02648    1.00000
  465     -6.69277    1.00000     -6.02155    1.00000
  466     -6.66763    1.00000     -6.01723    1.00000
  467     -6.58408    1.00000     -6.01389    1.00000
  468     -6.57440    1.00000     -5.99061    1.00000
  469     -6.56457    1.00000     -5.98874    1.00000
  470     -6.55547    1.00000     -5.97347    1.00000
  471     -6.55042    1.00000     -5.96967    1.00000
  472     -6.54000    1.00000     -5.96439    1.00000
  473     -6.53384    1.00000     -5.95670    1.00000
  474     -6.52626    1.00000     -5.95140    1.00000
  475     -6.51795    1.00000     -5.94743    1.00000
  476     -6.50007    1.00000     -5.94092    1.00000
  477     -6.49674    1.00000     -5.94004    1.00000
  478     -6.49281    1.00000     -5.91306    1.00000
  479     -6.48131    1.00000     -5.89909    1.00000
  480     -6.46716    1.00000     -5.88192    1.00000
  481     -6.45550    1.00000     -5.86291    1.00000
  482     -6.45393    1.00000     -5.85807    1.00000
  483     -6.44798    1.00000     -5.85413    1.00000
  484     -6.42146    1.00000     -5.85308    1.00000
  485     -6.41092    1.00000     -5.80923    1.00000
  486     -6.40814    1.00000     -5.80575    1.00000
  487     -6.40737    1.00000     -5.74156    1.00000
  488     -6.40644    1.00000     -5.68828    1.00000
  489     -6.39615    1.00000     -5.67953    1.00000
  490     -6.38310    1.00000     -5.66363    1.00000
  491     -6.38088    1.00000     -5.66136    1.00000
  492     -6.37722    1.00000     -5.64903    1.00000
  493     -6.37331    1.00000     -5.64167    1.00000
  494     -6.37032    1.00000     -5.63991    1.00000
  495     -6.36275    1.00000     -5.61942    1.00000
  496     -6.36156    1.00000     -5.61719    1.00000
  497     -6.35832    1.00000     -5.60376    1.00000
  498     -6.35542    1.00000     -5.57853    1.00000
  499     -6.34451    1.00000     -5.56775    1.00000
  500     -6.33413    1.00000     -5.56111    1.00000
  501     -6.30598    1.00000     -5.55650    1.00000
  502     -6.29023    1.00000     -5.54519    1.00000
  503     -6.28780    1.00000     -5.54281    1.00000
  504     -6.27728    1.00000     -5.52900    1.00000
  505     -6.26662    1.00000     -5.52309    1.00000
  506     -6.25819    1.00000     -5.51854    1.00000
  507     -6.22788    1.00000     -5.51779    1.00000
  508     -6.19190    1.00000     -5.51519    1.00000
  509     -6.16035    1.00000     -5.50818    1.00000
  510     -6.15118    1.00000     -5.49803    1.00000
  511     -6.13726    1.00000     -5.49242    1.00000
  512     -6.13217    1.00000     -5.48868    1.00000
  513     -6.12502    1.00000     -5.48423    1.00000
  514     -6.12056    1.00000     -5.47920    1.00000
  515     -6.11221    1.00000     -5.47378    1.00000
  516     -6.10595    1.00000     -5.45809    1.00000
  517     -6.09072    1.00000     -5.45180    1.00000
  518     -6.08906    1.00000     -5.43575    1.00000
  519     -6.07853    1.00000     -5.42813    1.00000
  520     -6.05712    1.00000     -5.42172    1.00000
  521     -6.05408    1.00000     -5.41582    1.00000
  522     -6.04588    1.00000     -5.40724    1.00000
  523     -6.03858    1.00000     -5.39816    1.00000
  524     -6.03417    1.00000     -5.37896    1.00000
  525     -6.02897    1.00000     -5.36346    1.00000
  526     -6.02531    1.00000     -5.35051    1.00000
  527     -6.02274    1.00000     -5.34818    1.00000
  528     -6.01904    1.00000     -5.33036    1.00000
  529     -6.00739    1.00000     -5.31077    1.00000
  530     -6.00483    1.00000     -5.30577    1.00000
  531     -5.99862    1.00000     -5.28350    1.00000
  532     -5.99527    1.00000     -5.28208    1.00000
  533     -5.99430    1.00000     -5.27851    1.00000
  534     -5.98482    1.00000     -5.27518    1.00000
  535     -5.98054    1.00000     -5.26372    1.00000
  536     -5.97681    1.00000     -5.25957    1.00000
  537     -5.96949    1.00000     -5.25237    1.00000
  538     -5.96734    1.00000     -5.24728    1.00000
  539     -5.96472    1.00000     -5.24306    1.00000
  540     -5.95918    1.00000     -5.23395    1.00000
  541     -5.95159    1.00000     -5.23024    1.00000
  542     -5.94930    1.00000     -5.22804    1.00000
  543     -5.94683    1.00000     -5.21957    1.00000
  544     -5.94316    1.00000     -5.20284    1.00000
  545     -5.93974    1.00000     -5.19452    1.00000
  546     -5.93387    1.00000     -5.18313    1.00000
  547     -5.92978    1.00000     -5.16932    1.00000
  548     -5.92698    1.00000     -5.15730    1.00000
  549     -5.92272    1.00000     -5.14030    1.00000
  550     -5.91563    1.00000     -5.10198    1.00000
  551     -5.91113    1.00000     -5.09849    1.00000
  552     -5.90707    1.00000     -5.09026    1.00000
  553     -5.90545    1.00000     -5.07293    1.00000
  554     -5.90459    1.00000     -5.07003    1.00000
  555     -5.89878    1.00000     -5.06856    1.00000
  556     -5.89731    1.00000     -5.06645    1.00000
  557     -5.89049    1.00000     -5.06511    1.00000
  558     -5.88654    1.00000     -5.04495    1.00000
  559     -5.88232    1.00000     -5.03870    1.00000
  560     -5.88062    1.00000     -5.03753    1.00000
  561     -5.87843    1.00000     -5.03560    1.00000
  562     -5.87483    1.00000     -5.03255    1.00000
  563     -5.87264    1.00000     -5.00928    1.00000
  564     -5.86471    1.00000     -5.00686    1.00000
  565     -5.86278    1.00000     -5.00422    1.00000
  566     -5.86243    1.00000     -5.00026    1.00000
  567     -5.85927    1.00000     -4.99150    1.00000
  568     -5.84885    1.00000     -4.98124    1.00000
  569     -5.84286    1.00000     -4.98067    1.00000
  570     -5.83984    1.00000     -4.97174    1.00000
  571     -5.82873    1.00000     -4.96442    1.00000
  572     -5.82139    1.00000     -4.93955    1.00000
  573     -5.81719    1.00000     -4.93177    1.00000
  574     -5.81104    1.00000     -4.91556    1.00000
  575     -5.80403    1.00000     -4.90049    1.00000
  576     -5.80077    1.00000     -4.88847    1.00000
  577     -5.79798    1.00000     -4.85920    1.00000
  578     -5.79077    1.00000     -4.80531    1.00000
  579     -5.78099    1.00000     -4.80071    1.00000
  580     -5.78003    1.00000     -4.78166    1.00000
  581     -5.77007    1.00000     -4.78052    1.00000
  582     -5.76315    1.00000     -4.76974    1.00000
  583     -5.76109    1.00000     -4.75854    1.00000
  584     -5.75198    1.00000     -4.75693    1.00000
  585     -5.74780    1.00000     -4.74469    1.00000
  586     -5.74211    1.00000     -4.74306    1.00000
  587     -5.73361    1.00000     -4.73619    1.00000
  588     -5.71838    1.00000     -4.71921    1.00000
  589     -5.71415    1.00000     -4.71301    1.00000
  590     -5.70676    1.00000     -4.70310    1.00000
  591     -5.70512    1.00000     -4.69761    1.00000
  592     -5.70143    1.00000     -4.69512    1.00000
  593     -5.70051    1.00000     -4.67782    1.00000
  594     -5.69581    1.00000     -4.66535    1.00000
  595     -5.69047    1.00000     -4.66453    1.00000
  596     -5.68740    1.00000     -4.65701    1.00000
  597     -5.68576    1.00000     -4.64853    1.00000
  598     -5.68053    1.00000     -4.64414    1.00000
  599     -5.67574    1.00000     -4.64236    1.00000
  600     -5.66998    1.00000     -4.64005    1.00000
  601     -5.66178    1.00000     -4.63963    1.00000
  602     -5.65732    1.00000     -4.62895    1.00000
  603     -5.65174    1.00000     -4.62592    1.00000
  604     -5.65086    1.00000     -4.61323    1.00000
  605     -5.64363    1.00000     -4.60976    1.00000
  606     -5.63966    1.00000     -4.60546    1.00000
  607     -5.63724    1.00000     -4.60347    1.00000
  608     -5.62048    1.00000     -4.59619    1.00000
  609     -5.61928    1.00000     -4.59115    1.00000
  610     -5.61029    1.00000     -4.58692    1.00000
  611     -5.60025    1.00000     -4.58503    1.00000
  612     -5.59915    1.00000     -4.58358    1.00000
  613     -5.58403    1.00000     -4.57479    1.00000
  614     -5.58327    1.00000     -4.57056    1.00000
  615     -5.57142    1.00000     -4.52611    1.00000
  616     -5.57094    1.00000     -4.52595    1.00000
  617     -5.56806    1.00000     -4.51792    1.00000
  618     -5.54473    1.00000     -4.51461    1.00000
  619     -5.54377    1.00000     -4.51070    1.00000
  620     -5.53650    1.00000     -4.50822    1.00000
  621     -5.53396    1.00000     -4.50757    1.00000
  622     -5.52570    1.00000     -4.50616    1.00000
  623     -5.51899    1.00000     -4.50442    1.00000
  624     -5.49820    1.00000     -4.50134    1.00000
  625     -5.49423    1.00000     -4.49307    1.00000
  626     -5.49167    1.00000     -4.48984    1.00000
  627     -5.49039    1.00000     -4.48527    1.00000
  628     -5.48390    1.00000     -4.48179    1.00000
  629     -5.48294    1.00000     -4.47330    1.00000
  630     -5.47874    1.00000     -4.47276    1.00000
  631     -5.47247    1.00000     -4.46764    1.00000
  632     -5.47130    1.00000     -4.46233    1.00000
  633     -5.46793    1.00000     -4.45921    1.00000
  634     -5.46169    1.00000     -4.45856    1.00000
  635     -5.45746    1.00000     -4.45622    1.00000
  636     -5.45574    1.00000     -4.44700    1.00000
  637     -5.45276    1.00000     -4.44037    1.00000
  638     -5.45035    1.00000     -4.43762    1.00000
  639     -5.44736    1.00000     -4.43533    1.00000
  640     -5.44550    1.00000     -4.43431    1.00000
  641     -5.44383    1.00000     -4.43115    1.00000
  642     -5.44189    1.00000     -4.42704    1.00000
  643     -5.43930    1.00000     -4.42413    1.00000
  644     -5.43835    1.00000     -4.42214    1.00000
  645     -5.43245    1.00000     -4.41889    1.00000
  646     -5.41711    1.00000     -4.41589    1.00000
  647     -5.40657    1.00000     -4.41262    1.00000
  648     -5.40408    1.00000     -4.40370    1.00000
  649     -5.40071    1.00000     -4.39122    1.00000
  650     -5.39984    1.00000     -4.38662    1.00000
  651     -5.38946    1.00000     -4.37245    1.00000
  652     -5.38636    1.00000     -4.36696    1.00000
  653     -5.37729    1.00000     -4.35870    1.00000
  654     -5.36993    1.00000     -4.35287    1.00000
  655     -5.35983    1.00000     -4.34446    1.00000
  656     -5.34552    1.00000     -4.33962    1.00000
  657     -5.34499    1.00000     -4.32562    1.00000
  658     -5.34396    1.00000     -4.32489    1.00000
  659     -5.34125    1.00000     -4.32011    1.00000
  660     -5.33813    1.00000     -4.31575    1.00000
  661     -5.33710    1.00000     -4.31530    1.00000
  662     -5.32860    1.00000     -4.31167    1.00000
  663     -5.32423    1.00000     -4.31034    1.00000
  664     -5.32254    1.00000     -4.30821    1.00000
  665     -5.32158    1.00000     -4.29905    1.00000
  666     -5.31862    1.00000     -4.29667    1.00000
  667     -5.31483    1.00000     -4.27215    1.00000
  668     -5.30967    1.00000     -4.26631    1.00000
  669     -5.30326    1.00000     -4.26472    1.00000
  670     -5.29632    1.00000     -4.25841    1.00000
  671     -5.29088    1.00000     -4.24500    1.00000
  672     -5.28872    1.00000     -4.22955    1.00000
  673     -5.28605    1.00000     -4.20222    1.00000
  674     -5.28333    1.00000     -4.18097    1.00000
  675     -5.27831    1.00000     -4.17298    1.00000
  676     -5.27583    1.00000     -4.16981    1.00000
  677     -5.27540    1.00000     -4.16524    1.00000
  678     -5.26686    1.00000     -4.15651    1.00000
  679     -5.26488    1.00000     -4.15375    1.00000
  680     -5.25781    1.00000     -4.14686    1.00000
  681     -5.21586    1.00000     -4.14000    1.00000
  682     -5.21255    1.00000     -4.13099    1.00000
  683     -5.20868    1.00000     -4.13064    1.00000
  684     -5.20594    1.00000     -4.11984    1.00000
  685     -5.20181    1.00000     -4.11678    1.00000
  686     -5.19977    1.00000     -4.10785    1.00000
  687     -5.19898    1.00000     -4.10641    1.00000
  688     -5.19690    1.00000     -4.09075    1.00000
  689     -5.19638    1.00000     -4.08846    1.00000
  690     -5.19452    1.00000     -4.08228    1.00000
  691     -5.19060    1.00000     -4.08051    1.00000
  692     -5.17091    1.00000     -4.07432    1.00000
  693     -5.16572    1.00000     -4.06655    1.00000
  694     -5.16491    1.00000     -4.05266    1.00000
  695     -5.05429    1.00000     -4.05037    1.00000
  696     -5.04772    1.00000     -4.04700    1.00000
  697     -5.03653    1.00000     -4.04478    1.00000
  698     -5.03614    1.00000     -4.03421    1.00000
  699     -5.02671    1.00000     -4.02556    1.00000
  700     -5.02460    1.00000     -4.02337    1.00000
  701     -5.02157    1.00000     -4.01908    1.00000
  702     -5.01754    1.00000     -4.01049    1.00000
  703     -5.01390    1.00000     -4.00491    1.00000
  704     -5.01261    1.00000     -3.98875    1.00000
  705     -4.99786    1.00000     -3.98315    1.00000
  706     -4.99467    1.00000     -3.97904    1.00000
  707     -4.98068    1.00000     -3.96797    1.00000
  708     -4.97662    1.00000     -3.95555    1.00000
  709     -4.90175    1.00000     -3.95101    1.00000
  710     -4.88843    1.00000     -3.94799    1.00000
  711     -4.88148    1.00000     -3.93916    1.00000
  712     -4.85679    1.00000     -3.92754    1.00000
  713     -4.84227    1.00000     -3.92581    1.00000
  714     -4.82979    1.00000     -3.91749    1.00000
  715     -4.82623    1.00000     -3.90997    0.99999
  716     -4.82420    1.00000     -3.90649    0.99999
  717     -4.81980    1.00000     -3.89297    0.99999
  718     -4.81889    1.00000     -3.89023    0.99999
  719     -4.81357    1.00000     -3.88086    0.99999
  720     -4.80744    1.00000     -3.87057    0.99999
  721     -4.79960    1.00000     -3.86823    0.99999
  722     -4.79631    1.00000     -3.86555    0.99999
  723     -4.78902    1.00000     -3.86085    0.99999
  724     -4.78793    1.00000     -3.85349    0.99999
  725     -4.77886    1.00000     -3.84159    0.99999
  726     -4.76528    1.00000     -3.83495    0.99999
  727     -4.76430    1.00000     -3.83385    0.99999
  728     -4.76075    1.00000     -3.83264    0.99999
  729     -4.75682    1.00000     -3.81995    0.99999
  730     -4.75209    1.00000     -3.81771    0.99999
  731     -4.73548    1.00000     -3.80396    0.99999
  732     -4.72723    1.00000     -3.78783    0.99998
  733     -4.72436    1.00000     -3.76611    0.99998
  734     -4.71961    1.00000     -3.75812    0.99998
  735     -4.71845    1.00000     -3.70971    0.99996
  736     -4.71468    1.00000     -3.70633    0.99996
  737     -4.66496    1.00000     -3.69789    0.99996
  738     -4.66079    1.00000     -3.69368    0.99995
  739     -4.65456    1.00000     -3.69118    0.99995
  740     -4.65004    1.00000     -3.67917    0.99995
  741     -4.64931    1.00000     -3.67778    0.99995
  742     -4.63085    1.00000     -3.67352    0.99994
  743     -4.61968    1.00000     -3.66631    0.99994
  744     -4.60936    1.00000     -3.66512    0.99994
  745     -4.60429    1.00000     -3.66227    0.99994
  746     -4.60185    1.00000     -3.65411    0.99993
  747     -4.58412    1.00000     -3.64750    0.99993
  748     -4.58127    1.00000     -3.63557    0.99992
  749     -4.56983    1.00000     -3.62805    0.99991
  750     -4.56549    1.00000     -3.59801    0.99988
  751     -4.56090    1.00000     -3.59417    0.99988
  752     -4.55602    1.00000     -3.58678    0.99987
  753     -4.55222    1.00000     -3.57531    0.99985
  754     -4.55050    1.00000     -3.57169    0.99985
  755     -4.55012    1.00000     -3.56491    0.99984
  756     -4.54895    1.00000     -3.55887    0.99983
  757     -4.53899    1.00000     -3.55433    0.99982
  758     -4.53413    1.00000     -3.55234    0.99981
  759     -4.53256    1.00000     -3.53717    0.99978
  760     -4.52957    1.00000     -3.53356    0.99978
  761     -4.52896    1.00000     -3.51943    0.99974
  762     -4.52237    1.00000     -3.49815    0.99968
  763     -4.51849    1.00000     -3.47342    0.99959
  764     -4.51340    1.00000     -3.45718    0.99952
  765     -4.50886    1.00000     -3.45586    0.99951
  766     -4.50769    1.00000     -3.44824    0.99948
  767     -4.50393    1.00000     -3.40615    0.99920
  768     -4.49975    1.00000     -3.39849    0.99914
  769     -4.49864    1.00000     -3.38730    0.99904
  770     -4.48871    1.00000     -3.38494    0.99901
  771     -4.47531    1.00000     -3.38153    0.99898
  772     -4.46441    1.00000     -3.37358    0.99889
  773     -4.44686    1.00000     -3.36500    0.99879
  774     -4.44119    1.00000     -3.35432    0.99866
  775     -4.41376    1.00000     -3.34908    0.99859
  776     -4.40765    1.00000     -3.34246    0.99849
  777     -4.39554    1.00000     -3.32927    0.99828
  778     -4.37918    1.00000     -3.32480    0.99820
  779     -4.37349    1.00000     -3.32019    0.99811
  780     -4.36995    1.00000     -3.31586    0.99803
  781     -4.36778    1.00000     -3.31250    0.99796
  782     -4.36617    1.00000     -3.31037    0.99792
  783     -4.36294    1.00000     -3.30558    0.99782
  784     -4.35663    1.00000     -3.29917    0.99767
  785     -4.35208    1.00000     -3.28571    0.99734
  786     -4.34556    1.00000     -3.28237    0.99725
  787     -4.34163    1.00000     -3.28151    0.99723
  788     -4.34012    1.00000     -3.27426    0.99702
  789     -4.33224    1.00000     -3.25894    0.99653
  790     -4.32895    1.00000     -3.25494    0.99638
  791     -4.32534    1.00000     -3.25023    0.99621
  792     -4.32416    1.00000     -3.24700    0.99609
  793     -4.32226    1.00000     -3.24502    0.99601
  794     -4.31927    1.00000     -3.24249    0.99591
  795     -4.31749    1.00000     -3.24105    0.99585
  796     -4.31520    1.00000     -3.23864    0.99575
  797     -4.31359    1.00000     -3.23787    0.99572
  798     -4.31237    1.00000     -3.23373    0.99554
  799     -4.30967    1.00000     -3.23164    0.99544
  800     -4.30806    1.00000     -3.22436    0.99510
  801     -4.30419    1.00000     -3.21500    0.99462
  802     -4.30006    1.00000     -3.21278    0.99450
  803     -4.29864    1.00000     -3.20540    0.99408
  804     -4.29101    1.00000     -3.20089    0.99381
  805     -4.28776    1.00000     -3.19652    0.99354
  806     -4.28556    1.00000     -3.19468    0.99342
  807     -4.28386    1.00000     -3.18981    0.99309
  808     -4.28251    1.00000     -3.18515    0.99276
  809     -4.28002    1.00000     -3.17273    0.99181
  810     -4.27140    1.00000     -3.16825    0.99144
  811     -4.26582    1.00000     -3.16500    0.99116
  812     -4.26256    1.00000     -3.16261    0.99095
  813     -4.26043    1.00000     -3.13894    0.98856
  814     -4.26011    1.00000     -3.13607    0.98823
  815     -4.25403    1.00000     -3.13211    0.98776
  816     -4.25184    1.00000     -3.10660    0.98426
  817     -4.24812    1.00000     -3.10443    0.98392
  818     -4.24477    1.00000     -3.09349    0.98209
  819     -4.23581    1.00000     -3.08910    0.98131
  820     -4.22985    1.00000     -3.07950    0.97946
  821     -4.22382    1.00000     -3.07469    0.97847
  822     -4.22279    1.00000     -3.06555    0.97646
  823     -4.21792    1.00000     -3.05362    0.97355
  824     -4.21584    1.00000     -3.03208    0.96741
  825     -4.21162    1.00000     -3.03078    0.96699
  826     -4.20731    1.00000     -3.00512    0.95775
  827     -4.20481    1.00000     -3.00253    0.95669
  828     -4.20361    1.00000     -2.92200    0.90802
  829     -4.20156    1.00000     -2.90449    0.89231
  830     -4.19383    1.00000     -2.90379    0.89164
  831     -4.19255    1.00000     -2.89605    0.88392
  832     -4.18934    1.00000     -2.89379    0.88159
  833     -4.18539    1.00000     -2.88321    0.87009
  834     -4.18103    1.00000     -2.87917    0.86545
  835     -4.17604    1.00000     -2.87357    0.85880
  836     -4.17106    1.00000     -2.86949    0.85378
  837     -4.10990    1.00000     -2.86447    0.84740
  838     -4.10428    1.00000     -2.86117    0.84309
  839     -4.09313    1.00000     -2.85414    0.83356
  840     -4.08927    1.00000     -2.84899    0.82629
  841     -4.08657    1.00000     -2.84246    0.81672
  842     -4.07448    1.00000     -2.83281    0.80183
  843     -4.06534    1.00000     -2.82162    0.78344
  844     -4.05930    1.00000     -2.82012    0.78089
  845     -4.05830    1.00000     -2.80229    0.74886
  846     -4.05038    1.00000     -2.79934    0.74328
  847     -4.04088    1.00000     -2.78650    0.71802
  848     -4.03940    1.00000     -2.78624    0.71750
  849     -4.03756    1.00000     -2.78252    0.70988
  850     -4.03142    1.00000     -2.77714    0.69869
  851     -4.02561    1.00000     -2.77597    0.69623
  852     -4.02412    1.00000     -2.77439    0.69288
  853     -4.02124    1.00000     -2.75879    0.65871
  854     -4.01482    1.00000     -2.75658    0.65372
  855     -4.00874    1.00000     -2.74668    0.63099
  856     -4.00598    1.00000     -2.74326    0.62299
  857     -4.00186    1.00000     -2.73116    0.59418
  858     -3.99928    1.00000     -2.72479    0.57873
  859     -3.99616    1.00000     -2.71761    0.56113
  860     -3.98907    1.00000     -2.70781    0.53688
  861     -3.98543    1.00000     -2.70346    0.52603
  862     -3.98251    1.00000     -2.68849    0.48865
  863     -3.98178    1.00000     -2.68496    0.47982
  864     -3.97950    1.00000     -2.68027    0.46813
  865     -3.97735    1.00000     -2.67205    0.44773
  866     -3.97394    1.00000     -2.66086    0.42024
  867     -3.96944    1.00000     -2.65998    0.41811
  868     -3.96567    1.00000     -2.65715    0.41123
  869     -3.96381    1.00000     -2.64631    0.38528
[...]
  975     -3.37389    0.99890     -1.97149    0.00073
  976     -3.37158    0.99887     -1.96772    0.00071
  977     -3.35177    0.99862     -1.96701    0.00070
  978     -3.33761    0.99842     -1.96577    0.00069
  979     -3.33020    0.99829     -1.96159    0.00067
  980     -3.32694    0.99824     -1.95968    0.00065
  981     -3.32328    0.99817     -1.95698    0.00064
  982     -3.30264    0.99775     -1.95555    0.00063
  983     -3.27832    0.99714     -1.95297    0.00061
  984     -3.27529    0.99705     -1.95172    0.00060
  985     -3.26408    0.99670     -1.94921    0.00059
  986     -3.25684    0.99645     -1.94697    0.00057
  987     -3.25184    0.99627     -1.94639    0.00057
  988     -3.25048    0.99622     -1.94301    0.00055
  989     -3.24755    0.99611     -1.93818    0.00053
  990     -3.23881    0.99575     -1.93648    0.00052
  991     -3.23538    0.99561     -1.93349    0.00050
  992     -3.22383    0.99507     -1.92886    0.00048
  993     -3.21557    0.99465     -1.92462    0.00046
  994     -3.21150    0.99443     -1.92419    0.00046
  995     -3.21039    0.99437     -1.92093    0.00044
  996     -3.20770    0.99422     -1.91121    0.00040
  997     -3.18623    0.99284     -1.90669    0.00038
  998     -3.18165    0.99251     -1.90278    0.00037
  999     -3.17869    0.99228     -1.89969    0.00036
 1000     -3.17592    0.99207     -1.88082    0.00030
 1001     -3.16581    0.99123     -1.87604    0.00028
 1002     -3.16359    0.99104     -1.87250    0.00027
 1003     -3.14533    0.98926     -1.87169    0.00027
 1004     -3.04603    0.97153     -1.86637    0.00026
 1005     -2.94167    0.92318     -1.86448    0.00025
 1006     -2.94058    0.92240     -1.86163    0.00024
 1007     -2.90645    0.89418     -1.86059    0.00024
 1008     -2.87119    0.85589     -1.85973    0.00024
 1009     -2.86791    0.85180     -1.85377    0.00023
 1010     -2.85611    0.83628     -1.84759    0.00021
 1011     -2.85429    0.83376     -1.84651    0.00021
 1012     -2.78780    0.72065     -1.83809    0.00019
 1013     -2.76806    0.67924     -1.82927    0.00018
 1014     -2.75982    0.66104     -1.80352    0.00014
 1015     -2.74748    0.63285     -1.79296    0.00012
 1016     -2.74019    0.61575     -1.78276    0.00011
 1017     -2.73777    0.61001     -1.77860    0.00011
 1018     -2.68851    0.48870     -1.77511    0.00010
 1019     -2.67881    0.46451     -1.73901    0.00007
 1020     -2.67711    0.46028     -1.73533    0.00007
 1021     -2.67205    0.44774     -1.73140    0.00007
 1022     -2.66858    0.43918     -1.73026    0.00007
 1023     -2.66428    0.42860     -1.72768    0.00006
 1024     -2.62878    0.34467     -1.69808    0.00005
 1025     -2.61439    0.31294     -1.66453    0.00003
 1026     -2.60859    0.30060     -1.66184    0.00003
 1027     -2.58468    0.25283     -1.65779    0.00003
 1028     -2.56196    0.21237     -1.65426    0.00003
 1029     -2.54026    0.17832     -1.64922    0.00003
 1030     -2.53255    0.16731     -1.58351    0.00002
 1031     -2.52098    0.15180     -1.57624    0.00001
 1032     -2.50682    0.13445     -1.56989    0.00001
 1033     -2.38641    0.04452     -1.56038    0.00001
 1034     -2.35212    0.03201     -1.55290    0.00001
 1035     -2.31096    0.02144     -1.54766    0.00001
 1036     -2.26975    0.01430     -1.51502    0.00001
 1037     -2.18803    0.00637     -1.51031    0.00001
 1038     -2.18653    0.00627     -1.49060    0.00001
 1039     -2.14586    0.00419     -1.48822    0.00001
 1040     -1.75911    0.00009     -1.17298    0.00000
 1041     -1.68988    0.00004     -1.16426    0.00000
 1042     -1.68920    0.00004     -1.15537    0.00000
 1043     -1.67778    0.00004     -1.14534    0.00000
 1044     -1.67587    0.00004     -1.13864    0.00000
 1045     -1.67469    0.00004     -1.09128    0.00000
 1046     -1.64269    0.00003     -1.08907    0.00000
 1047     -1.62157    0.00002     -1.07985    0.00000
 1048     -1.61718    0.00002     -1.05784    0.00000
 1049     -1.33995    0.00000     -0.78092    0.00000
 1050     -1.33848    0.00000     -0.77827    0.00000
 1051     -1.31353    0.00000     -0.76628    0.00000
 1052     -1.31051    0.00000     -0.76505    0.00000
 1053     -1.30926    0.00000     -0.76165    0.00000
 1054     -1.30254    0.00000     -0.73838    0.00000
 1055     -1.29890    0.00000     -0.72969    0.00000
 1056     -1.29715    0.00000     -0.72046    0.00000
 1057     -1.29390    0.00000     -0.70772    0.00000
 1058     -1.28680    0.00000     -0.70211    0.00000
 1059     -1.17789    0.00000     -0.69656    0.00000
 1060     -1.16662    0.00000     -0.67957    0.00000
 1061     -1.15823    0.00000     -0.67584    0.00000
 1062     -1.14850    0.00000     -0.67028    0.00000
 1063     -1.14278    0.00000     -0.57204    0.00000
 1064     -1.12293    0.00000     -0.56243    0.00000
 1065     -1.10028    0.00000     -0.55321    0.00000
 1066     -0.90353    0.00000     -0.41956    0.00000
 1067     -0.88825    0.00000     -0.40678    0.00000
 1068     -0.87850    0.00000     -0.40438    0.00000
 1069     -0.87718    0.00000     -0.40156    0.00000
 1070     -0.71088    0.00000     -0.19147    0.00000
 1071     -0.67189    0.00000     -0.18612    0.00000
 1072     -0.64592    0.00000     -0.17657    0.00000
 1073     -0.43272    0.00000     -0.17569    0.00000
 1074     -0.41459    0.00000     -0.16947    0.00000
 1075     -0.40835    0.00000     -0.14595    0.00000
 1076     -0.38858    0.00000     -0.13152    0.00000
 1077     -0.26258    0.00000      0.22917    0.00000
 1078     -0.24493    0.00000      0.23710    0.00000
 1079     -0.24016    0.00000      0.24079    0.00000
 1080     -0.23628    0.00000      0.25156    0.00000
 1081     -0.23064    0.00000      0.26119    0.00000
 1082     -0.21371    0.00000      0.28923    0.00000
 1083     -0.20389    0.00000      0.30736    0.00000
 1084     -0.07945    0.00000      0.34937    0.00000
 1085     -0.06581    0.00000      0.35663    0.00000
 1086     -0.03752    0.00000      0.36370    0.00000
 1087     -0.03212    0.00000      0.36877    0.00000
 1088     -0.02692    0.00000      0.37942    0.00000
 1089     -0.02106    0.00000      0.38529    0.00000
 1090     -0.01845    0.00000      0.38720    0.00000
 1091     -0.00622    0.00000      0.39355    0.00000
 1092      0.01311    0.00000      0.39567    0.00000
 1093      0.06274    0.00000      0.46889    0.00000
 1094      0.07321    0.00000      0.48525    0.00000
 1095      0.10567    0.00000      0.51950    0.00000
 1096      0.14912    0.00000      0.64228    0.00000
 1097      0.16791    0.00000      0.65103    0.00000
 1098      0.23651    0.00000      0.69267    0.00000
 1099      0.25998    0.00000      0.71390    0.00000
 1100      0.29088    0.00000      0.72587    0.00000
 1101      0.31628    0.00000      0.73437    0.00000
 1102      0.34229    0.00000      0.75104    0.00000
 1103      0.36562    0.00000      0.80635    0.00000
 1104      0.56080    0.00000      0.90287    0.00000
 1105      0.56653    0.00000      0.91006    0.00000
 1106      0.59637    0.00000      0.92733    0.00000
 1107      0.65596    0.00000      1.07080    0.00000
 1108      0.66031    0.00000      1.07649    0.00000
 1109      0.68135    0.00000      1.09827    0.00000
 1110      0.69643    0.00000      1.10208    0.00000
 1111      0.73562    0.00000      1.20926    0.00000
 1112      0.95516    0.00000      1.33609    0.00000
 1113      0.97486    0.00000      1.34739    0.00000
 1114      1.02578    0.00000      1.37592    0.00000
 1115      1.03414    0.00000      1.44242    0.00000
 1116      1.05401    0.00000      1.44855    0.00000
 1117      1.05867    0.00000      1.45069    0.00000
 1118      1.07589    0.00000      1.46759    0.00000
 1119      1.08108    0.00000      1.47531    0.00000
 1120      1.08586    0.00000      1.50295    0.00000
 1121      1.10257    0.00000      1.51609    0.00000
 1122      1.11251    0.00000      1.52385    0.00000
 1123      1.13082    0.00000      1.53374    0.00000
 1124      1.31795    0.00000      1.66877    0.00000
 1125      1.32883    0.00000      1.67654    0.00000
 1126      1.33486    0.00000      1.68298    0.00000
 1127      1.33658    0.00000      1.68895    0.00000
 1128      1.34736    0.00000      1.69706    0.00000
 1129      1.75662    0.00000      2.12785    0.00000
 1130      1.77407    0.00000      2.14269    0.00000
 1131      1.78384    0.00000      2.14905    0.00000
 1132      1.79740    0.00000      2.15149    0.00000
 1133      1.80191    0.00000      2.16740    0.00000
 1134      1.90668    0.00000      2.17608    0.00000
 1135      1.92561    0.00000      2.21774    0.00000
 1136      1.95601    0.00000      2.23762    0.00000
 1137      1.95770    0.00000      2.24753    0.00000
 1138      1.96036    0.00000      2.24838    0.00000
 1139      1.96558    0.00000      2.25065    0.00000
 1140      1.96661    0.00000      2.25638    0.00000
 1141      1.97086    0.00000      2.26138    0.00000
 1142      2.07950    0.00000      2.27646    0.00000
 1143      2.10427    0.00000      2.34415    0.00000
 1144      2.12145    0.00000      2.34636    0.00000
 1145      2.14113    0.00000      2.38131    0.00000
 1146      2.28384    0.00000      2.38595    0.00000
 1147      2.29319    0.00000      2.39902    0.00000
 1148      2.37077    0.00000      2.46539    0.00000
 1149      2.37242    0.00000      2.47318    0.00000
 1150      2.38085    0.00000      2.50196    0.00000
 1151      2.45216    0.00000      2.50575    0.00000
 1152      2.52375    0.00000      2.59633    0.00000
 1153      2.53225    0.00000      2.59776    0.00000
 1154      2.54226    0.00000      2.59924    0.00000
 1155      2.54325    0.00000      2.60266    0.00000
 1156      2.54767    0.00000      2.60534    0.00000
 1157      2.55071    0.00000      2.60952    0.00000
 1158      2.55591    0.00000      2.61250    0.00000

Fermi level: -2.69303

Gap: 0.015 eV
Transition (v -> c):
  (s=1, k=0, n=861, [0.00, 0.00, 0.00]) -> (s=0, k=0, n=1018, [0.00, 0.00, 0.00])

Forces in eV/Ang:
  0 Pt   -0.13007    0.21124   -0.02218
  1 Pt    0.25793    0.25870    0.07556
  2 Co   -0.12176   -0.22971   -0.02685
  3 Pt    0.02903    0.05535   -0.00730
  4 Pt   -0.11735    0.01678   -0.07295
  5 Co    0.34459    0.20767    0.14999
  6 Pt   -0.06632   -0.13860    0.01323
  7 Co    0.13828   -0.27138    0.07119
  8 Pt   -0.13214    0.11290   -0.02658
  9 Pt   -0.33586   -0.10638   -0.15788
 10 Co    0.23726    0.01218    0.12945
 11 Pt   -0.05495   -0.00790   -0.03520
 12 Pt   -0.02151    0.13990   -0.20808
 13 Co    0.08839   -0.21291    0.13180
 14 Co    0.06080   -0.10833    0.06331
 15 Pt   -0.04672    0.06614   -0.15833
 16 Co    0.01351   -0.13471    0.05065
 17 Pt    0.02562   -0.04419   -0.00887
 18 Co    0.06734    0.05121    0.05215
 19 Co    0.16556    0.03666    0.31181
 20 Co    0.00444   -0.10635    0.38764
 21 Pt   -0.00438   -0.09103   -0.18655
 22 Pt   -0.00709   -0.07184   -0.12683
 23 Co    0.06611   -0.23386    0.23414
 24 Co    0.01532   -0.00823    0.09036
 25 Pt    0.00947    0.08641   -0.15855
 26 Co   -0.12815    0.03044    0.30237
 27 Co   -0.02258   -0.02392    0.11484
 28 Pt    0.11596    0.00520   -0.07211
 29 Pt    0.04038   -0.16241   -0.19964
 30 Pt   -0.09094   -0.01647   -0.04839
 31 Pt    0.02548   -0.02024   -0.08832
 32 Co    0.14062    0.33283    0.20276
 33 Pt   -0.06511   -0.07288    0.03066
 34 Pt   -0.00411   -0.18599   -0.22711
 35 Co    0.04556    0.13743    0.22694
 36 Co   -0.14970    0.34068    0.17679
 37 Pt    0.04692   -0.06350   -0.03685
 38 Pt    0.05591   -0.05859    0.01818
 39 Co   -0.03284    0.12234    0.04282
 40 Co   -0.05050    0.09775    0.02118
 41 Pt    0.28397   -0.43389   -0.03621
 42 Co   -0.12607    0.21681    0.03915
 43 Co   -0.10518    0.17942   -0.01273
 44 Pt    0.23049   -0.05164   -0.11843
 45 Co    0.01120   -0.03778    0.05295
 46 Co   -0.02026    0.34282   -0.06592
 47 Pt   -0.07618   -0.25135    0.01059
 48 Co   -0.11572   -0.18012    0.33665
 49 Pt   -0.00030    0.06701   -0.12515
 50 Pt    0.15340    0.02178   -0.11307
 51 Pt    0.24563   -0.07601    0.11901
 52 Pt    0.00750   -0.05044   -0.09995
 53 Pt    0.27803   -0.01384   -0.12920
 54 Co   -0.21484   -0.04671    0.15663
 55 Pt    0.07777   -0.03926   -0.02925
 56 Pt    0.06454   -0.07113    0.00879
 57 Pt    0.10574    0.00342    0.08118
 58 Co   -0.30513    0.25468    0.11447
 59 Co   -0.39892   -0.01217   -0.00877
 60 Co   -0.07326    0.07599    0.01758
 61 Pt    0.06710    0.09653    0.00453
 62 Pt    0.10139    0.01315   -0.08450
 63 Co    0.02721   -0.26254    0.21551
 64 Pt    0.07774    0.16049   -0.04596
 65 Co    0.05308    0.13980   -0.31835
 66 Co   -0.01102    0.08793   -0.17502
 67 Pt   -0.00817    0.00100   -0.01117
 68 Pt   -0.14568    0.03693   -0.14012
 69 Co   -0.23243   -0.19349    0.16921
 70 Co   -0.05252   -0.05511    0.06152
 71 Co   -0.07540   -0.03846   -0.01863
 72 Pt    0.13592    0.01211   -0.09629
 73 Pt    0.01670    0.11149   -0.11853
 74 Pt    0.03410   -0.20651    0.20831
 75 Co   -0.04360    0.13601   -0.03722
 76 Co   -0.21477    0.21381   -0.13664
 77 Co   -0.07943    0.27444   -0.23690
 78 Pt    0.06149    0.10440   -0.02174
 79 Pt    0.06493   -0.07216    0.00521
 80 Pt    0.26916    0.02698    0.12425
 81 Co   -0.20627   -0.05578   -0.15065
 82 Pt    0.08789   -0.05582    0.01853
 83 Pt    0.01260   -0.08577    0.13820
 84 Co   -0.05487    0.10259   -0.05142
 85 Pt   -0.00865   -0.08232    0.15134
 86 Pt   -0.15677   -0.22457   -0.04631
 87 Co    0.13965    0.20264    0.03509
 88 Pt    0.00780   -0.08602    0.00434
 89 Co    0.05296    0.25408   -0.27368
 90 Pt   -0.16278    0.01838    0.07776
 91 Co    0.28371   -0.27451   -0.07199
 92 Co    0.17297   -0.34623   -0.11919
 93 Pt   -0.07994    0.13666    0.00088
 94 Co    0.05170   -0.04719   -0.04979
 95 Pt    0.00154    0.10764    0.12908
 96 Pt   -0.10918    0.04005    0.09001
 97 Co    0.09447    0.17834   -0.30823
 98 Pt   -0.04576    0.07892    0.12887
 99 Pt   -0.16919   -0.01702    0.09945
100 Co    0.13344   -0.08983   -0.22194
101 Co   -0.00184    0.03056   -0.06594
102 Pt   -0.08589   -0.09592   -0.00838
103 Pt   -0.12093    0.00190   -0.05714
104 Pt   -0.29043   -0.02132    0.16236
105 Co    0.23457    0.01566   -0.13560
106 Pt   -0.05927    0.01695    0.03677
107 Pt   -0.12091    0.16840   -0.00033
108 Pt   -0.01529   -0.08498    0.15989
109 Co    0.24303    0.18805   -0.17281
110 Pt   -0.13213   -0.01553    0.07898
111 Co    0.05842    0.02848    0.01278
112 Co    0.03396    0.05770   -0.07816
113 Co    0.02629   -0.11508   -0.06077
114 Co    0.10014   -0.04123   -0.03506
115 Co    0.37228   -0.08609    0.00825
116 Pt   -0.11682    0.00460    0.05186
117 Co   -0.01038   -0.08115    0.16293
118 Co    0.00885   -0.14849    0.20471
119 Pt    0.02176   -0.05277    0.00166
120 Pt    0.06262   -0.09035    0.00919
121 Pt   -0.11077   -0.14931   -0.00390
122 Pt    0.00832    0.09954    0.17609
123 Pt    0.14918   -0.01356    0.07815
124 Co   -0.03726   -0.05293   -0.03778
125 Co   -0.14918   -0.05311   -0.31770
126 Pt    0.01651    0.04865    0.09978
127 Co   -0.06464    0.17284   -0.31766
128 Co    0.00299   -0.00167   -0.11430
129 Pt    0.07049    0.09110    0.00428
130 Pt    0.13218    0.00393    0.06982
131 Co   -0.00616    0.09903   -0.35988
132 Pt    0.01100   -0.11995    0.18336
133 Co   -0.04472   -0.35428   -0.14830
134 Pt    0.01728    0.17771    0.27762
135 Co   -0.00313   -0.17232   -0.20266
136 Pt    0.00216    0.01036    0.06127
137 Pt    0.13524   -0.01231    0.08723
138 Co   -0.34598   -0.19823   -0.15209
139 Co   -0.24154    0.30741    0.15286
140 Co   -0.10293    0.15056   -0.01045
141 Pt   -0.00129    0.01151   -0.01122
142 Pt   -0.16378    0.04231   -0.09719
143 Pt    0.06642    0.18411    0.00629
144 Co    0.11247   -0.28529    0.07606
145 Pt    0.00785    0.05842    0.09723
146 Pt   -0.04925    0.14095   -0.00404

Timing:                              incl.     excl.
-----------------------------------------------------------
Forces:                             25.496    25.496   0.2% |
Hamiltonian:                         4.747     2.080   0.0% |
 Atomic:                             0.323     0.043   0.0% |
  XC Correction:                     0.279     0.279   0.0% |
 Calculate atomic Hamiltonians:      1.013     1.013   0.0% |
 Communicate:                        0.280     0.280   0.0% |
 Initialize Hamiltonian:             0.000     0.000   0.0% |
 Poisson:                            0.001     0.001   0.0% |
 XC 3D grid:                         1.049     1.049   0.0% |
LCAO initialization:               205.849     0.263   0.0% |
 LCAO eigensolver:                  24.642     0.009   0.0% |
  Calculate projections:             0.000     0.000   0.0% |
  DenseAtomicCorrection:             0.000     0.000   0.0% |
  Distribute overlap matrix:        20.781    20.781   0.2% |
  Orbital Layouts:                   3.846     3.846   0.0% |
  Potential matrix:                  0.006     0.006   0.0% |
 LCAO to grid:                     163.692   163.692   1.4% ||
 Set positions (LCAO WFS):          17.252    17.117   0.1% |
  Basic WFS set positions:           0.005     0.005   0.0% |
  Basis functions set positions:     0.001     0.001   0.0% |
  P tci:                             0.001     0.001   0.0% |
  ST tci:                            0.049     0.049   0.0% |
  mktci:                             0.080     0.080   0.0% |
PWDescriptor:                        0.164     0.164   0.0% |
SCF-cycle:                       11809.905     0.839   0.0% |
 Davidson:                       11330.659  3749.666  31.1% |-----------|
  Apply H:                         308.607   306.092   2.5% ||
   HMM T:                            2.515     2.515   0.0% |
  Subspace diag:                  2423.408     0.038   0.0% |
   calc_h_matrix:                  495.038   236.718   2.0% ||
    Apply H:                       258.320   255.921   2.1% ||
     HMM T:                          2.398     2.398   0.0% |
   diagonalize:                    170.175   170.175   1.4% ||
   rotate_psi:                    1758.158  1758.158  14.6% |-----|
  calc. matrices:                 2645.871  2137.046  17.7% |------|
   Apply H:                        508.825   503.751   4.2% |-|
    HMM T:                           5.074     5.074   0.0% |
  diagonalize:                    1208.024  1208.024  10.0% |---|
  rotate_psi:                      995.083   995.083   8.3% |--|
 Density:                          282.162     0.002   0.0% |
  Atomic density matrices:           1.544     1.544   0.0% |
  Mix:                             130.270   130.270   1.1% |
  Multipole moments:                 0.099     0.099   0.0% |
  Pseudo density:                  150.246   150.241   1.2% |
   Symmetrize density:               0.005     0.005   0.0% |
 Hamiltonian:                      185.113     6.969   0.1% |
  Atomic:                           25.768     0.236   0.0% |
   XC Correction:                   25.533    25.533   0.2% |
  Calculate atomic Hamiltonians:    84.258    84.258   0.7% |
  Communicate:                      11.001    11.001   0.1% |
  Poisson:                           0.119     0.119   0.0% |
  XC 3D grid:                       56.998    56.998   0.5% |
 Orthonormalize:                    11.132     0.001   0.0% |
  calc_s_matrix:                     1.518     1.518   0.0% |
  inverse-cholesky:                  0.677     0.677   0.0% |
  projections:                       6.529     6.529   0.1% |
  rotate_psi_s:                      2.408     2.408   0.0% |
Set symmetry:                        0.001     0.001   0.0% |
Other:                              11.418    11.418   0.1% |
-----------------------------------------------------------
Total:                                     12057.580 100.0%

Memory usage: 1.50 GiB
Date: Mon Feb 28 17:37:21 2022
